 Gaussian 16, Revision B.01,
 Gaussian 16:  ES64L-G16RevB.01 20-Dec-2017

 ----------------------
 # B3LYP/6-311G* NOSYMM
 ----------------------

 ------------------
 From 8belt_opt.out
 ------------------
 Symbolic Z-matrix:
 Charge =  0 Multiplicity = 1

                          Input orientation:
 ---------------------------------------------------------------------
 Center     Atomic      Atomic             Coordinates (Angstroms)
 Number     Number       Type             X           Y           Z
 ---------------------------------------------------------------------
      1          6           0       -5.444043   -0.713576   -1.236052
      2          6           0       -5.444260    0.712173   -1.236027
      3          6           0       -5.380049    1.489060   -2.439344
      4          6           0       -4.857644    2.749861   -2.439329
      5          6           0       -5.268983    1.403599    0.000012
      6          6           0       -4.718838    2.731881    0.000038
      7          6           0       -4.353912    3.344697   -1.236020
      8          6           0       -3.345883    4.352914   -1.236020
      9          6           0       -2.751149    4.856752   -2.439316
     10          6           0       -1.490463    5.379440   -2.439320
     11          6           0       -2.733152    4.717967    0.000048
     12          6           0       -1.405009    5.268398    0.000036
     13          6           0       -0.713622    5.443848   -1.236007
     14          6           0        0.712133    5.444014   -1.236034
     15          6           0        1.488944    5.379744   -2.439373
     16          6           0        2.749771    4.857380   -2.439404
     17          6           0        1.403614    5.268758   -0.000012
     18          6           0        2.731912    4.718679   -0.000037
     19          6           0        3.344695    4.353750   -1.236113
     20          6           0        4.352989    3.345786   -1.236115
     21          6           0        4.856791    2.751024   -2.439423
     22          6           0        5.379535    1.490367   -2.439404
     23          6           0        4.718141    2.733137   -0.000048
     24          6           0        5.268635    1.405003   -0.000033
     25          6           0        5.444042    0.713576   -1.236053
     26          6           0        5.444258   -0.712173   -1.236029
     27          6           0        5.268981   -1.403600    0.000011
     28          6           0        4.718838   -2.731880    0.000037
     29          6           0        4.353877   -3.344638    1.236108
     30          6           0        4.857579   -2.749752    2.439405
     31          6           0        5.379992   -1.488954    2.439374
     32          6           0        3.345830   -4.352845    1.236124
     33          6           0        2.733150   -4.717967    0.000049
     34          6           0        3.345883   -4.352915   -1.236019
     35          6           0        2.751150   -4.856753   -2.439315
     36          6           0        1.490464   -5.379442   -2.439319
     37          6           0        0.713622   -5.443849   -1.236006
     38          6           0       -0.712133   -5.444014   -1.236033
     39          6           0       -1.403614   -5.268757   -0.000011
     40          6           0       -0.712183   -5.444025    1.236031
     41          6           0        0.713574   -5.443802    1.236060
     42          6           0        1.490349   -5.379286    2.439404
     43          6           0        2.751034   -4.856586    2.439423
     44          6           0        1.405008   -5.268399    0.000036
     45          6           0        4.353911   -3.344696   -1.236019
     46          6           0        4.857641   -2.749861   -2.439328
     47          6           0        5.380045   -1.489059   -2.439344
     48          6           0        5.444251   -0.712124    1.236029
     49          6           0        5.444086    0.713621    1.236005
     50          6           0        5.379679    1.490478    2.439327
     51          6           0        4.856945    2.751136    2.439322
     52          6           0        4.353050    3.345836    1.236014
     53          6           0        3.344754    4.353785    1.236026
     54          6           0        2.749885    4.857463    2.439328
     55          6           0        1.489056    5.379816    2.439339
     56          6           0        0.712183    5.444024    1.236029
     57          6           0       -0.713574    5.443802    1.236059
     58          6           0       -1.490348    5.379285    2.439403
     59          6           0       -2.751034    4.856586    2.439422
     60          6           0       -3.345831    4.352848    1.236123
     61          6           0       -4.353877    3.344639    1.236107
     62          6           0       -4.857575    2.749751    2.439405
     63          6           0       -5.379988    1.488953    2.439376
     64          6           0       -5.444252    0.712124    1.236029
     65          6           0       -5.444087   -0.713621    1.236006
     66          6           0       -5.379679   -1.490478    2.439327
     67          6           0       -4.856945   -2.751136    2.439321
     68          6           0       -4.353050   -3.345836    1.236014
     69          6           0       -3.344754   -4.353784    1.236026
     70          6           0       -2.749886   -4.857463    2.439328
     71          6           0       -1.489057   -5.379817    2.439340
     72          6           0       -2.731911   -4.718678   -0.000037
     73          6           0       -3.344694   -4.353748   -1.236113
     74          6           0       -2.749770   -4.857377   -2.439404
     75          6           0       -1.488943   -5.379743   -2.439373
     76          6           0       -5.268635   -1.405003   -0.000033
     77          6           0       -4.718141   -2.733136   -0.000048
     78          6           0       -4.352988   -3.345785   -1.236115
     79          6           0       -4.856788   -2.751023   -2.439424
     80          6           0       -5.379533   -1.490366   -2.439404
     81          1           0       -5.669615    1.041852   -3.384303
     82          1           0       -4.745855    3.270639   -3.384354
     83          1           0       -3.271811    4.744707   -3.384375
     84          1           0       -1.043286    5.668978   -3.384302
     85          1           0        1.041673    5.669162   -3.384346
     86          1           0        3.270444    4.745505   -3.384475
     87          1           0        4.744689    3.271665   -3.384485
     88          1           0        5.669032    1.043151   -3.384380
     89          1           0        4.745756   -3.270477    3.384454
     90          1           0        5.669497   -1.041701    3.384330
     91          1           0        3.271811   -4.744708   -3.384374
     92          1           0        1.043287   -5.668982   -3.384301
     93          1           0        1.043117   -5.668700    3.384396
     94          1           0        3.271621   -4.744433    3.384508
     95          1           0        4.745850   -3.270637   -3.384354
     96          1           0        5.669605   -1.041854   -3.384306
     97          1           0        5.669290    1.043316    3.384294
     98          1           0        4.744942    3.271846    3.384358
     99          1           0        3.270617    4.745638    3.384373
    100          1           0        1.041837    5.669310    3.384314
    101          1           0       -1.043116    5.668698    3.384396
    102          1           0       -3.271619    4.744432    3.384508
    103          1           0       -4.745750    3.270481    3.384451
    104          1           0       -5.669490    1.041699    3.384332
    105          1           0       -5.669289   -1.043318    3.384296
    106          1           0       -4.744943   -3.271846    3.384357
    107          1           0       -3.270619   -4.745639    3.384373
    108          1           0       -1.041839   -5.669312    3.384315
    109          1           0       -3.270443   -4.745502   -3.384475
    110          1           0       -1.041671   -5.669161   -3.384345
    111          1           0       -4.744684   -3.271661   -3.384487
    112          1           0       -5.669030   -1.043149   -3.384380
 ---------------------------------------------------------------------

 SCF Done:  E(RB3LYP) =  -3068.55145285     A.U. after   13 cycles

 Alpha  occ. eigenvalues --  -10.19436 -10.19436 -10.19436 -10.19436 -10.19435
 Alpha  occ. eigenvalues --  -10.19435 -10.19435 -10.19435 -10.19431 -10.19431
 Alpha  occ. eigenvalues --  -10.19431 -10.19431 -10.19430 -10.19430 -10.19430
 Alpha  occ. eigenvalues --  -10.19430 -10.19400 -10.19399 -10.19399 -10.19399
 Alpha  occ. eigenvalues --  -10.19398 -10.19397 -10.19397 -10.19397 -10.19388
 Alpha  occ. eigenvalues --  -10.19388 -10.19388 -10.19388 -10.19387 -10.19387
 Alpha  occ. eigenvalues --  -10.19387 -10.19387 -10.19320 -10.19320 -10.19320
 Alpha  occ. eigenvalues --  -10.19319 -10.19318 -10.19317 -10.19317 -10.19316
 Alpha  occ. eigenvalues --  -10.19283 -10.19282 -10.19282 -10.19282 -10.19281
 Alpha  occ. eigenvalues --  -10.19281 -10.19281 -10.19281 -10.18365 -10.18365
 Alpha  occ. eigenvalues --  -10.18365 -10.18365 -10.18365 -10.18365 -10.18365
 Alpha  occ. eigenvalues --  -10.18365 -10.18365 -10.18365 -10.18365 -10.18365
 Alpha  occ. eigenvalues --  -10.18364 -10.18364 -10.18364 -10.18364 -10.18300
 Alpha  occ. eigenvalues --  -10.18300 -10.18300 -10.18300 -10.18300 -10.18300
 Alpha  occ. eigenvalues --  -10.18299 -10.18299 -10.18299 -10.18299 -10.18299
 Alpha  occ. eigenvalues --  -10.18299 -10.18299 -10.18299 -10.18299 -10.18299
 Alpha  occ. eigenvalues --   -0.91566  -0.91201  -0.91201  -0.90113  -0.90112
 Alpha  occ. eigenvalues --   -0.88323  -0.88322  -0.86193  -0.85594  -0.85433
 Alpha  occ. eigenvalues --   -0.85259  -0.85259  -0.84271  -0.84270  -0.82720
 Alpha  occ. eigenvalues --   -0.82720  -0.82673  -0.82673  -0.81400  -0.79093
 Alpha  occ. eigenvalues --   -0.79092  -0.78808  -0.77064  -0.76982  -0.76982
 Alpha  occ. eigenvalues --   -0.76955  -0.76954  -0.75714  -0.75713  -0.74962
 Alpha  occ. eigenvalues --   -0.74962  -0.74525  -0.74386  -0.74386  -0.73877
 Alpha  occ. eigenvalues --   -0.73876  -0.71481  -0.70684  -0.70684  -0.68756
 Alpha  occ. eigenvalues --   -0.67050  -0.66031  -0.65787  -0.65029  -0.65029
 Alpha  occ. eigenvalues --   -0.64804  -0.64804  -0.63672  -0.63672  -0.63621
 Alpha  occ. eigenvalues --   -0.63621  -0.62413  -0.62412  -0.62254  -0.62254
 Alpha  occ. eigenvalues --   -0.61421  -0.59449  -0.59449  -0.58476  -0.58475
 Alpha  occ. eigenvalues --   -0.57620  -0.56411  -0.55899  -0.55194  -0.55194
 Alpha  occ. eigenvalues --   -0.54459  -0.54459  -0.53620  -0.53620  -0.53249
 Alpha  occ. eigenvalues --   -0.53000  -0.52999  -0.52062  -0.52061  -0.50843
 Alpha  occ. eigenvalues --   -0.50355  -0.50354  -0.50163  -0.50162  -0.49547
 Alpha  occ. eigenvalues --   -0.49547  -0.48506  -0.48505  -0.48428  -0.48107
 Alpha  occ. eigenvalues --   -0.48099  -0.47358  -0.47358  -0.46440  -0.46440
 Alpha  occ. eigenvalues --   -0.45282  -0.45021  -0.45020  -0.44480  -0.44480
 Alpha  occ. eigenvalues --   -0.44398  -0.44398  -0.44329  -0.44085  -0.43701
 Alpha  occ. eigenvalues --   -0.43701  -0.43140  -0.43140  -0.43132  -0.42881
 Alpha  occ. eigenvalues --   -0.42879  -0.42654  -0.42447  -0.42446  -0.42207
 Alpha  occ. eigenvalues --   -0.41622  -0.41503  -0.41503  -0.40927  -0.40685
 Alpha  occ. eigenvalues --   -0.40683  -0.40537  -0.40537  -0.40471  -0.40470
 Alpha  occ. eigenvalues --   -0.40447  -0.40447  -0.39950  -0.39892  -0.39891
 Alpha  occ. eigenvalues --   -0.39004  -0.39004  -0.38131  -0.37776  -0.37653
 Alpha  occ. eigenvalues --   -0.37653  -0.36437  -0.36231  -0.36040  -0.36040
 Alpha  occ. eigenvalues --   -0.36018  -0.36018  -0.35917  -0.35144  -0.35144
 Alpha  occ. eigenvalues --   -0.34870  -0.34869  -0.33616  -0.33616  -0.33262
 Alpha  occ. eigenvalues --   -0.33262  -0.33007  -0.33007  -0.32731  -0.32423
 Alpha  occ. eigenvalues --   -0.32423  -0.31766  -0.31766  -0.31071  -0.31051
 Alpha  occ. eigenvalues --   -0.29387  -0.28175  -0.28175  -0.27196  -0.27030
 Alpha  occ. eigenvalues --   -0.27030  -0.26778  -0.26778  -0.26162  -0.26162
 Alpha  occ. eigenvalues --   -0.25712  -0.25712  -0.25449  -0.23304  -0.23303
 Alpha  occ. eigenvalues --   -0.23013  -0.23013  -0.20836  -0.19017  -0.19017
 Alpha  occ. eigenvalues --   -0.16360
 Alpha virt. eigenvalues --   -0.10634  -0.08166  -0.08165  -0.07114  -0.04622
 Alpha virt. eigenvalues --   -0.04621  -0.04405  -0.04405  -0.04002  -0.03254
 Alpha virt. eigenvalues --   -0.03254  -0.01490  -0.01490  -0.01289  -0.01289

 Mulliken charges:
               1
     1  C    0.023364
     2  C    0.023434
     3  C   -0.216193
     4  C   -0.216249
     5  C   -0.005657
     6  C   -0.005726
     7  C    0.023525
     8  C    0.023470
     9  C   -0.216228
    10  C   -0.216184
    11  C   -0.005679
    12  C   -0.005634
    13  C    0.023392
    14  C    0.023423
    15  C   -0.216188
    16  C   -0.216247
    17  C   -0.005676
    18  C   -0.005711
    19  C    0.023521
    20  C    0.023480
    21  C   -0.216238
    22  C   -0.216168
    23  C   -0.005685
    24  C   -0.005606
    25  C    0.023362
    26  C    0.023437
    27  C   -0.005661
    28  C   -0.005722
    29  C    0.023535
    30  C   -0.216256
    31  C   -0.216182
    32  C    0.023466
    33  C   -0.005682
    34  C    0.023471
    35  C   -0.216229
    36  C   -0.216184
    37  C    0.023391
    38  C    0.023423
    39  C   -0.005679
    40  C    0.023442
    41  C    0.023376
    42  C   -0.216174
    43  C   -0.216228
    44  C   -0.005629
    45  C    0.023524
    46  C   -0.216248
    47  C   -0.216195
    48  C    0.023417
    49  C    0.023380
    50  C   -0.216179
    51  C   -0.216234
    52  C    0.023476
    53  C    0.023512
    54  C   -0.216239
    55  C   -0.216200
    56  C    0.023438
    57  C    0.023380
    58  C   -0.216176
    59  C   -0.216229
    60  C    0.023468
    61  C    0.023535
    62  C   -0.216257
    63  C   -0.216182
    64  C    0.023416
    65  C    0.023382
    66  C   -0.216180
    67  C   -0.216234
    68  C    0.023477
    69  C    0.023510
    70  C   -0.216239
    71  C   -0.216201
    72  C   -0.005710
    73  C    0.023521
    74  C   -0.216248
    75  C   -0.216187
    76  C   -0.005608
    77  C   -0.005685
    78  C    0.023480
    79  C   -0.216238
    80  C   -0.216169
    81  H    0.195597
    82  H    0.195608
    83  H    0.195596
    84  H    0.195593
    85  H    0.195592
    86  H    0.195604
    87  H    0.195602
    88  H    0.195586
    89  H    0.195611
    90  H    0.195591
    91  H    0.195597
    92  H    0.195592
    93  H    0.195587
    94  H    0.195595
    95  H    0.195608
    96  H    0.195597
    97  H    0.195591
    98  H    0.195604
    99  H    0.195602
   100  H    0.195598
   101  H    0.195587
   102  H    0.195595
   103  H    0.195611
   104  H    0.195591
   105  H    0.195591
   106  H    0.195603
   107  H    0.195602
   108  H    0.195598
   109  H    0.195604
   110  H    0.195592
   111  H    0.195602
   112  H    0.195586
 Sum of Mulliken charges =  -0.00000

 Dipole moment (field-independent basis, Debye):
    X=              0.0000    Y=             -0.0000    Z=              0.0000  Tot=              0.0000
 Quadrupole moment (field-independent basis, Debye-Ang):
   XX=           -466.6770   YY=           -466.6847   ZZ=           -380.3941
   XY=              0.0002   XZ=              0.0000   YZ=              0.0000

 Normal termination of Gaussian 16 at Tue Jul 31 03:44:46 2007.
