 Gaussian 16, Revision B.01,
 Gaussian 16:  ES64L-G16RevB.01 20-Dec-2017

 ----------------------
 # B3LYP/6-311G* NOSYMM
 ----------------------

 --------------------------
 From 8mobius_opt-cont1.out
 --------------------------
 Symbolic Z-matrix:
 Charge =  0 Multiplicity = 1

                          Input orientation:
 ---------------------------------------------------------------------
 Center     Atomic      Atomic             Coordinates (Angstroms)
 Number     Number       Type             X           Y           Z
 ---------------------------------------------------------------------
      1          6           0        5.922144   -2.729479   -0.857187
      2          6           0        6.214706   -1.386989   -1.195639
      3          6           0        6.015687   -0.968894   -2.564907
      4          6           0        5.257144    0.142161   -2.780429
      5          6           0        6.174990   -0.390389   -0.178457
      6          6           0        5.718655    0.938878   -0.494016
      7          6           0        4.911489    0.988042   -1.677936
      8          6           0        3.640087    1.568384   -1.437766
      9          6           0        2.428810    0.894146   -1.790634
     10          6           0        1.301812    1.096372   -1.026014
     11          6           0        3.572797    2.624004   -0.488531
     12          6           0        2.306576    3.137687   -0.114084
     13          6           0        1.228374    2.201777   -0.132257
     14          6           0        0.189762    2.489432    0.795216
     15          6           0       -0.595546    1.555536    1.528228
     16          6           0       -1.678253    1.982544    2.262491
     17          6           0       -0.099001    3.881876    0.931992
     18          6           0       -1.447963    4.195606    1.237336
     19          6           0       -2.218320    3.283858    2.008748
     20          6           0       -3.609192    3.533135    2.123970
     21          6           0       -4.499176    2.903656    3.054135
     22          6           0       -5.710191    2.453273    2.624685
     23          6           0       -4.158492    4.112330    0.933294
     24          6           0       -5.244232    3.343359    0.378615
     25          6           0       -5.940471    2.408048    1.197981
     26          6           0       -6.396441    1.196591    0.626275
     27          6           0       -5.911789    0.874966   -0.676970
     28          6           0       -5.495231   -0.482707   -0.921683
     29          6           0       -4.734153   -0.792894   -2.086337
     30          6           0       -4.686000    0.211757   -3.111393
     31          6           0       -5.063467    1.507185   -2.866925
     32          6           0       -3.894889   -1.957445   -2.078281
     33          6           0       -3.055558   -2.338739   -3.172645
     34          6           0       -2.012842   -3.211879   -3.012459
     35          6           0       -3.727152   -2.673054   -0.851439
     36          6           0       -4.650493   -2.480485    0.219552
     37          6           0       -4.423097   -3.199256    1.438957
     38          6           0       -3.238314   -3.836395    1.674181
     39          6           0       -2.214087   -3.901109    0.678071
     40          6           0       -2.549366   -3.471753   -0.643859
     41          6           0       -1.652688   -3.722681   -1.724132
     42          6           0       -0.387270   -4.330883   -1.458782
     43          6           0        0.067993   -4.407810   -0.105693
     44          6           0       -0.854576   -4.234299    0.967961
     45          6           0       -0.327789   -4.259843    2.299306
     46          6           0        1.020358   -4.231306    2.538881
     47          6           0        1.976605   -4.258767    1.474454
     48          6           0        3.342355   -3.840169    1.619986
     49          6           0        3.852683   -3.191425    2.795762
     50          6           0        4.923629   -2.336671    2.737720
     51          6           0       -5.612900   -1.440280    0.132145
     52          6           0       -6.545906   -1.153950    1.188772
     53          6           0       -6.935561    0.126591    1.425294
     54          6           0       -5.526490    1.918177   -1.572022
     55          6           0       -5.291306    3.237879   -1.044328
     56          6           0       -4.730019    4.336275   -1.783576
     57          6           0       -3.872100    5.238224   -1.194701
     58          6           0       -3.401265    5.017870    0.141756
     59          6           0       -2.031658    5.295491    0.542973
     60          6           0       -1.132952    6.304378    0.093852
     61          6           0        0.247349    6.164385    0.232778
     62          6           0        0.816621    4.904106    0.561273
     63          6           0        2.192846    4.444392    0.434295
     64          6           0        3.403485    5.046822    0.870152
     65          6           0        4.587415    4.310106    0.916902
     66          6           0        4.701218    3.046408    0.272836
     67          6           0        5.642677    1.959513    0.491713
     68          6           0        6.156847    1.628125    1.787987
     69          6           0        6.328879    0.309061    2.147640
     70          6           0        6.153997   -0.758442    1.200943
     71          6           0        5.578710   -2.047098    1.493642
     72          6           0        5.318455   -2.947741    0.417563
     73          6           0        4.188265   -3.840758    0.472677
     74          6           0        3.768625   -4.495795   -0.725686
     75          6           0        2.384906   -4.746457   -0.917195
     76          6           0        1.834875   -4.987430   -2.219414
     77          6           0        0.518812   -4.741636   -2.486507
     78          6           0        1.476690   -4.522373    0.160747
     79          6           0        4.732622   -4.620508   -1.787243
     80          6           0        5.783962   -3.761921   -1.851898
     81          1           0        6.246064   -1.641340   -3.383980
     82          1           0        4.861487    0.363490   -3.768102
     83          1           0        2.463119    0.082865   -2.511131
     84          1           0        0.442346    0.440980   -1.131819
     85          1           0       -0.310498    0.507557    1.529472
     86          1           0       -2.250453    1.276010    2.855530
     87          1           0       -4.172260    2.735489    4.076869
     88          1           0       -6.373340    1.932328    3.306600
     89          1           0       -4.232423   -0.022493   -4.069069
     90          1           0       -4.886139    2.257040   -3.631987
     91          1           0       -3.224116   -1.900696   -4.151342
     92          1           0       -1.383351   -3.433135   -3.867940
     93          1           0       -5.155710   -3.142367    2.236648
     94          1           0       -3.065714   -4.288244    2.645845
     95          1           0       -1.007321   -4.191336    3.142308
     96          1           0        1.366521   -4.146570    3.564143
     97          1           0        3.313338   -3.281525    3.733222
     98          1           0        5.189696   -1.769483    3.624682
     99          1           0       -6.880550   -1.951704    1.844573
    100          1           0       -7.568672    0.355650    2.277410
    101          1           0       -4.912883    4.409184   -2.851919
    102          1           0       -3.402078    6.001610   -1.808889
    103          1           0       -1.527660    7.207898   -0.363384
    104          1           0        0.896315    6.984498   -0.063053
    105          1           0        3.379817    6.041390    1.307777
    106          1           0        5.443794    4.721098    1.445022
    107          1           0        6.220695    2.398732    2.551582
    108          1           0        6.517723    0.071198    3.190738
    109          1           0        2.494750   -5.258148   -3.036397
    110          1           0        0.158458   -4.842714   -3.505335
    111          1           0        4.574111   -5.344864   -2.580086
    112          1           0        6.458833   -3.785022   -2.702700
 ---------------------------------------------------------------------

 SCF Done:  E(RB3LYP) =  -3068.34351524     A.U. after   16 cycles

 Alpha  occ. eigenvalues --  -10.19872 -10.19854 -10.19817 -10.19776 -10.19735
 Alpha  occ. eigenvalues --  -10.19732 -10.19674 -10.19673 -10.19665 -10.19657
 Alpha  occ. eigenvalues --  -10.19647 -10.19622 -10.19616 -10.19615 -10.19601
 Alpha  occ. eigenvalues --  -10.19588 -10.19576 -10.19560 -10.19560 -10.19550
 Alpha  occ. eigenvalues --  -10.19541 -10.19536 -10.19508 -10.19504 -10.19499
 Alpha  occ. eigenvalues --  -10.19496 -10.19495 -10.19492 -10.19479 -10.19465
 Alpha  occ. eigenvalues --  -10.19458 -10.19452 -10.19443 -10.19440 -10.19437
 Alpha  occ. eigenvalues --  -10.19425 -10.19407 -10.19399 -10.19397 -10.19372
 Alpha  occ. eigenvalues --  -10.19186 -10.19157 -10.19146 -10.19102 -10.18985
 Alpha  occ. eigenvalues --  -10.18939 -10.18934 -10.18934 -10.18907 -10.18859
 Alpha  occ. eigenvalues --  -10.18807 -10.18780 -10.18745 -10.18728 -10.18686
 Alpha  occ. eigenvalues --  -10.18661 -10.18609 -10.18592 -10.18524 -10.18512
 Alpha  occ. eigenvalues --  -10.18497 -10.18497 -10.18492 -10.18488 -10.18464
 Alpha  occ. eigenvalues --  -10.18455 -10.18455 -10.18446 -10.18423 -10.18421
 Alpha  occ. eigenvalues --  -10.18419 -10.18404 -10.18399 -10.18398 -10.18379
 Alpha  occ. eigenvalues --  -10.18379 -10.18352 -10.18350 -10.18010 -10.17992
 Alpha  occ. eigenvalues --   -0.92038  -0.91692  -0.91385  -0.90410  -0.90405
 Alpha  occ. eigenvalues --   -0.88574  -0.88559  -0.86390  -0.85597  -0.85583
 Alpha  occ. eigenvalues --   -0.85472  -0.84872  -0.84673  -0.83547  -0.83521
 Alpha  occ. eigenvalues --   -0.82793  -0.82733  -0.81902  -0.81899  -0.79115
 Alpha  occ. eigenvalues --   -0.79112  -0.78265  -0.78072  -0.77081  -0.77061
 Alpha  occ. eigenvalues --   -0.76656  -0.75729  -0.75619  -0.75501  -0.75466
 Alpha  occ. eigenvalues --   -0.74987  -0.74929  -0.74545  -0.74242  -0.74240
 Alpha  occ. eigenvalues --   -0.72318  -0.72309  -0.71388  -0.69476  -0.69246
 Alpha  occ. eigenvalues --   -0.66845  -0.66048  -0.65747  -0.65571  -0.64703
 Alpha  occ. eigenvalues --   -0.64446  -0.64284  -0.64211  -0.63508  -0.63363
 Alpha  occ. eigenvalues --   -0.62823  -0.62807  -0.62362  -0.62348  -0.61672
 Alpha  occ. eigenvalues --   -0.61531  -0.59940  -0.59669  -0.58274  -0.58264
 Alpha  occ. eigenvalues --   -0.58028  -0.56118  -0.55919  -0.55479  -0.54931
 Alpha  occ. eigenvalues --   -0.54440  -0.54428  -0.53511  -0.53470  -0.53361
 Alpha  occ. eigenvalues --   -0.53303  -0.53021  -0.51966  -0.51708  -0.50898
 Alpha  occ. eigenvalues --   -0.50592  -0.50578  -0.50147  -0.50113  -0.49701
 Alpha  occ. eigenvalues --   -0.48916  -0.48532  -0.48524  -0.48345  -0.48314
 Alpha  occ. eigenvalues --   -0.48134  -0.47777  -0.47253  -0.46969  -0.45420
 Alpha  occ. eigenvalues --   -0.45327  -0.45217  -0.45123  -0.44874  -0.44718
 Alpha  occ. eigenvalues --   -0.44651  -0.44625  -0.44539  -0.44233  -0.44197
 Alpha  occ. eigenvalues --   -0.43768  -0.43716  -0.43361  -0.43238  -0.42985
 Alpha  occ. eigenvalues --   -0.42855  -0.42568  -0.42506  -0.42129  -0.42061
 Alpha  occ. eigenvalues --   -0.41944  -0.41662  -0.41539  -0.41317  -0.40981
 Alpha  occ. eigenvalues --   -0.40894  -0.40830  -0.40703  -0.40649  -0.40320
 Alpha  occ. eigenvalues --   -0.40236  -0.40201  -0.40082  -0.39613  -0.39476
 Alpha  occ. eigenvalues --   -0.39394  -0.39165  -0.38608  -0.38567  -0.37394
 Alpha  occ. eigenvalues --   -0.37234  -0.36959  -0.36762  -0.36354  -0.35621
 Alpha  occ. eigenvalues --   -0.35259  -0.35162  -0.35128  -0.34657  -0.34631
 Alpha  occ. eigenvalues --   -0.34467  -0.34302  -0.33862  -0.33357  -0.33289
 Alpha  occ. eigenvalues --   -0.33138  -0.32935  -0.32789  -0.32750  -0.32573
 Alpha  occ. eigenvalues --   -0.32315  -0.31772  -0.31494  -0.31037  -0.29800
 Alpha  occ. eigenvalues --   -0.29768  -0.28732  -0.27179  -0.27149  -0.26745
 Alpha  occ. eigenvalues --   -0.26474  -0.26426  -0.26020  -0.25705  -0.25675
 Alpha  occ. eigenvalues --   -0.25235  -0.25085  -0.24623  -0.24597  -0.22825
 Alpha  occ. eigenvalues --   -0.22684  -0.21310  -0.20961  -0.19376  -0.18306
 Alpha  occ. eigenvalues --   -0.15796
 Alpha virt. eigenvalues --   -0.11239  -0.09169  -0.07861  -0.06265  -0.06161
 Alpha virt. eigenvalues --   -0.05292  -0.05095  -0.04681  -0.03778  -0.03530
 Alpha virt. eigenvalues --   -0.02971  -0.02320  -0.02066  -0.02013  -0.01013

 Mulliken charges:
               1
     1  C    0.043766
     2  C    0.022672
     3  C   -0.201667
     4  C   -0.229945
     5  C   -0.013170
     6  C    0.006486
     7  C   -0.004434
     8  C    0.036368
     9  C   -0.206088
    10  C   -0.181652
    11  C   -0.038183
    12  C   -0.000491
    13  C   -0.014052
    14  C   -0.014342
    15  C   -0.181479
    16  C   -0.206621
    17  C    0.000201
    18  C   -0.038125
    19  C    0.039177
    20  C   -0.003283
    21  C   -0.234922
    22  C   -0.202669
    23  C    0.008063
    24  C   -0.010621
    25  C    0.021001
    26  C    0.045953
    27  C   -0.001036
    28  C   -0.000444
    29  C    0.005606
    30  C   -0.209193
    31  C   -0.211333
    32  C    0.036866
    33  C   -0.219002
    34  C   -0.206044
    35  C   -0.023404
    36  C    0.022248
    37  C   -0.205433
    38  C   -0.223464
    39  C    0.034083
    40  C   -0.007930
    41  C    0.008909
    42  C    0.034090
    43  C   -0.006194
    44  C    0.008542
    45  C   -0.206297
    46  C   -0.218751
    47  C    0.037254
    48  C    0.005780
    49  C   -0.210168
    50  C   -0.210730
    51  C    0.033558
    52  C   -0.228704
    53  C   -0.250361
    54  C    0.015719
    55  C    0.028663
    56  C   -0.231371
    57  C   -0.197030
    58  C    0.013844
    59  C    0.030607
    60  C   -0.227262
    61  C   -0.203932
    62  C    0.020950
    63  C    0.019075
    64  C   -0.205194
    65  C   -0.226168
    66  C    0.028897
    67  C    0.015878
    68  C   -0.196186
    69  C   -0.232321
    70  C    0.030478
    71  C    0.014185
    72  C    0.001901
    73  C   -0.000723
    74  C    0.033232
    75  C    0.023495
    76  C   -0.206007
    77  C   -0.224244
    78  C   -0.023921
    79  C   -0.227465
    80  C   -0.253816
    81  H    0.193469
    82  H    0.206399
    83  H    0.201585
    84  H    0.210398
    85  H    0.209542
    86  H    0.200877
    87  H    0.206739
    88  H    0.193771
    89  H    0.193316
    90  H    0.191232
    91  H    0.198780
    92  H    0.190911
    93  H    0.188307
    94  H    0.200964
    95  H    0.190950
    96  H    0.198412
    97  H    0.193662
    98  H    0.191107
    99  H    0.205352
   100  H    0.204070
   101  H    0.200448
   102  H    0.194355
   103  H    0.199178
   104  H    0.195332
   105  H    0.195333
   106  H    0.198813
   107  H    0.194611
   108  H    0.200673
   109  H    0.188053
   110  H    0.201177
   111  H    0.205591
   112  H    0.204915
 Sum of Mulliken charges =  -0.00000

 Dipole moment (field-independent basis, Debye):
    X=              0.0297    Y=              0.1014    Z=              0.0108  Tot=              0.1062
 Quadrupole moment (field-independent basis, Debye-Ang):
   XX=           -462.1144   YY=           -452.0065   ZZ=           -408.5808
   XY=              5.4503   XZ=            -11.9042   YZ=             -0.0514

 Normal termination of Gaussian 16 at Sat Apr 26 17:08:41 2025.
