 Gaussian 16, Revision B.01,
 Gaussian 16:  ES64L-G16RevB.01 20-Dec-2017

 ------------------------------------
 # B3LYP/6-311G* Pop=Hirshfeld NOSYMM
 ------------------------------------

 ---------------------------------
 From ../..//2x2_2_1_1_CNB_opt.out
 ---------------------------------
 Symbolic Z-matrix:
 Charge =  0 Multiplicity = 1

                          Input orientation:
 ---------------------------------------------------------------------
 Center     Atomic      Atomic             Coordinates (Angstroms)
 Number     Number       Type             X           Y           Z
 ---------------------------------------------------------------------
      1          6           0        3.870980   -1.574814   -1.042458
      2          6           0        4.096884   -0.903698    0.183429
      3          6           0        4.176424    0.505566   -2.273270
      4          6           0        4.128348   -0.853591   -2.266887
      5          6           0        3.956509    1.241422   -1.055946
      6          6           0        4.124724    0.556326    0.188846
      7          6           0        3.938453    1.312032    1.360602
      8          6           0        3.326573    2.496957   -1.079174
      9          6           0        2.783035    3.054167    0.083548
     10          6           0        3.241257    2.524110    1.335038
     11          6           0        2.748746    3.108858    2.565728
     12          6           0        1.600972    3.828246    2.565851
     13          6           0        1.536418    3.835726    0.083687
     14          6           0        0.859888    4.016923    1.335317
     15          6           0       -0.534820    4.116592    1.361087
     16          6           0        0.798027    4.082803   -1.078853
     17          6           0       -0.606537    4.103148   -1.055448
     18          6           0       -1.296399    3.955645    0.189351
     19          6           0       -2.567165    3.345471   -2.266505
     20          6           0       -1.364844    3.981133   -2.272741
     21          6           0       -3.103965    2.798921   -1.042271
     22          6           0       -2.598410    3.294449    0.183782
     23          6           0       -3.201550    2.816102    1.384658
     24          6           0       -3.929453    1.654786    1.384470
     25          6           0       -3.870984    1.574815   -1.042456
     26          6           0       -4.096887    0.903699    0.183431
     27          6           0       -4.176428   -0.505566   -2.273268
     28          6           0       -4.128352    0.853591   -2.266885
     29          6           0       -3.956512   -1.241422   -1.055944
     30          6           0       -4.124727   -0.556326    0.188848
     31          6           0       -3.938455   -1.312032    1.360604
     32          6           0       -3.326577   -2.496957   -1.079172
     33          6           0       -2.783038   -3.054166    0.083549
     34          6           0       -3.241259   -2.524109    1.335039
     35          6           0       -2.748747   -3.108857    2.565729
     36          6           0       -1.600974   -3.828246    2.565852
     37          6           0       -1.536421   -3.835725    0.083688
     38          6           0       -0.859890   -4.016922    1.335318
     39          6           0        0.534818   -4.116591    1.361087
     40          6           0       -0.798031   -4.082802   -1.078853
     41          6           0        0.606534   -4.103147   -1.055448
     42          6           0        1.296396   -3.955644    0.189351
     43          6           0        2.567162   -3.345471   -2.266506
     44          6           0        1.364840   -3.981132   -2.272741
     45          6           0        3.103962   -2.798921   -1.042272
     46          6           0        2.598407   -3.294449    0.183781
     47          6           0        3.201548   -2.816101    1.384657
     48          6           0        3.929451   -1.654786    1.384469
     49          1           0        4.254072    1.050043   -3.211294
     50          1           0        4.180022   -1.391166   -3.207618
     51          1           0        4.141363    0.872650    2.332686
     52          1           0        3.079537    2.912228   -2.052056
     53          1           0        3.249185    2.858180    3.497982
     54          1           0        1.157378    4.169265    3.498218
     55          1           0       -1.018579    4.107547    2.333238
     56          1           0        1.279320    4.041606   -2.051800
     57          1           0       -3.073606    3.158090   -3.207272
     58          1           0       -0.908743    4.288744   -3.210677
     59          1           0       -2.983511    3.299872    2.331519
     60          1           0       -4.270017    1.247545    2.331184
     61          1           0       -4.254076   -1.050042   -3.211292
     62          1           0       -4.180027    1.391166   -3.207616
     63          1           0       -4.141365   -0.872650    2.332688
     64          1           0       -3.079541   -2.912228   -2.052054
     65          1           0       -3.249186   -2.858179    3.497984
     66          1           0       -1.157379   -4.169264    3.498219
     67          1           0        1.018577   -4.107546    2.333237
     68          1           0       -1.279324   -4.041605   -2.051799
     69          1           0        3.073601   -3.158090   -3.207274
     70          1           0        0.908739   -4.288743   -3.210677
     71          1           0        2.983509   -3.299871    2.331518
     72          1           0        4.270015   -1.247544    2.331182
 ---------------------------------------------------------------------

 SCF Done:  E(RB3LYP) =  -1843.89260553     A.U. after   14 cycles

 Alpha  occ. eigenvalues --  -10.19522 -10.19522 -10.19491 -10.19491 -10.19489
 Alpha  occ. eigenvalues --  -10.19489 -10.19464 -10.19464 -10.19454 -10.19454
 Alpha  occ. eigenvalues --  -10.19448 -10.19448 -10.19406 -10.19406 -10.19401
 Alpha  occ. eigenvalues --  -10.19401 -10.19197 -10.19197 -10.19195 -10.19195
 Alpha  occ. eigenvalues --  -10.19126 -10.19126 -10.19125 -10.19125 -10.18352
 Alpha  occ. eigenvalues --  -10.18352 -10.18351 -10.18351 -10.18318 -10.18318
 Alpha  occ. eigenvalues --  -10.18318 -10.18318 -10.18274 -10.18274 -10.18274
 Alpha  occ. eigenvalues --  -10.18274 -10.18273 -10.18273 -10.18268 -10.18268
 Alpha  occ. eigenvalues --  -10.18211 -10.18211 -10.18201 -10.18200 -10.18200
 Alpha  occ. eigenvalues --  -10.18200 -10.18197 -10.18197  -0.90477  -0.89900
 Alpha  occ. eigenvalues --   -0.89803  -0.88030  -0.88014  -0.85295  -0.85083
 Alpha  occ. eigenvalues --   -0.82817  -0.81811  -0.81731  -0.80591  -0.80385
 Alpha  occ. eigenvalues --   -0.78659  -0.78491  -0.78303  -0.77176  -0.74913
 Alpha  occ. eigenvalues --   -0.74649  -0.74637  -0.74359  -0.72458  -0.71672
 Alpha  occ. eigenvalues --   -0.71027  -0.70393  -0.66945  -0.65201  -0.64605
 Alpha  occ. eigenvalues --   -0.64000  -0.63445  -0.63309  -0.62949  -0.62100
 Alpha  occ. eigenvalues --   -0.61084  -0.60868  -0.59557  -0.58837  -0.57815
 Alpha  occ. eigenvalues --   -0.55942  -0.55211  -0.54739  -0.53910  -0.53375
 Alpha  occ. eigenvalues --   -0.53312  -0.52303  -0.51567  -0.50845  -0.50529
 Alpha  occ. eigenvalues --   -0.49386  -0.48946  -0.48561  -0.47960  -0.47776
 Alpha  occ. eigenvalues --   -0.46557  -0.46111  -0.45414  -0.45180  -0.44914
 Alpha  occ. eigenvalues --   -0.44604  -0.44413  -0.44044  -0.43670  -0.43501
 Alpha  occ. eigenvalues --   -0.43201  -0.43172  -0.42989  -0.42546  -0.42487
 Alpha  occ. eigenvalues --   -0.41847  -0.41822  -0.41710  -0.41497  -0.41385
 Alpha  occ. eigenvalues --   -0.41159  -0.40324  -0.40140  -0.40021  -0.39664
 Alpha  occ. eigenvalues --   -0.38886  -0.37923  -0.36418  -0.36377  -0.35759
 Alpha  occ. eigenvalues --   -0.35271  -0.35259  -0.35148  -0.34125  -0.34058
 Alpha  occ. eigenvalues --   -0.33277  -0.33210  -0.33083  -0.32857  -0.32480
 Alpha  occ. eigenvalues --   -0.32225  -0.31229  -0.31198  -0.30951  -0.28650
 Alpha  occ. eigenvalues --   -0.28461  -0.28420  -0.27411  -0.24715  -0.24422
 Alpha  occ. eigenvalues --   -0.23419  -0.23212  -0.21712  -0.20975  -0.20211
 Alpha  occ. eigenvalues --   -0.19083
 Alpha virt. eigenvalues --   -0.08369  -0.06361  -0.06219  -0.05303  -0.04282
 Alpha virt. eigenvalues --   -0.03684  -0.03370  -0.03047  -0.01071   0.00198
 Alpha virt. eigenvalues --    0.00890   0.01151   0.02908   0.03261   0.04030

 Mulliken charges:
               1
     1  C    0.007121
     2  C    0.040040
     3  C   -0.236407
     4  C   -0.211870
     5  C    0.064323
     6  C    0.011885
     7  C   -0.239399
     8  C   -0.236809
     9  C    0.022332
    10  C    0.048150
    11  C   -0.226975
    12  C   -0.226979
    13  C    0.022224
    14  C    0.048260
    15  C   -0.239473
    16  C   -0.236723
    17  C    0.064210
    18  C    0.012005
    19  C   -0.211947
    20  C   -0.236390
    21  C    0.007249
    22  C    0.039907
    23  C   -0.220616
    24  C   -0.220663
    25  C    0.007122
    26  C    0.040039
    27  C   -0.236407
    28  C   -0.211871
    29  C    0.064322
    30  C    0.011886
    31  C   -0.239399
    32  C   -0.236808
    33  C    0.022332
    34  C    0.048150
    35  C   -0.226975
    36  C   -0.226979
    37  C    0.022224
    38  C    0.048259
    39  C   -0.239473
    40  C   -0.236723
    41  C    0.064210
    42  C    0.012005
    43  C   -0.211947
    44  C   -0.236390
    45  C    0.007249
    46  C    0.039907
    47  C   -0.220616
    48  C   -0.220662
    49  H    0.193366
    50  H    0.197287
    51  H    0.196883
    52  H    0.199074
    53  H    0.194708
    54  H    0.194710
    55  H    0.196875
    56  H    0.199076
    57  H    0.197313
    58  H    0.193372
    59  H    0.196934
    60  H    0.196944
    61  H    0.193366
    62  H    0.197287
    63  H    0.196883
    64  H    0.199074
    65  H    0.194708
    66  H    0.194710
    67  H    0.196875
    68  H    0.199077
    69  H    0.197313
    70  H    0.193372
    71  H    0.196934
    72  H    0.196944
 Sum of Mulliken charges =  -0.00000

 Dipole moment (field-independent basis, Debye):
    X=             -0.0000    Y=              0.0000    Z=             -0.0211  Tot=              0.0211
 Quadrupole moment (field-independent basis, Debye-Ang):
   XX=           -287.9573   YY=           -288.6417   ZZ=           -233.3258
   XY=             -0.7109   XZ=              0.0000   YZ=              0.0000

 Normal termination of Gaussian 16 at Fri May 23 05:52:24 2025.
