 Gaussian 16, Revision B.01,
 Gaussian 16:  ES64L-G16RevB.01 20-Dec-2017

 ------------------------------------
 # B3LYP/6-311G* Pop=Hirshfeld NOSYMM
 ------------------------------------

 -----------------------------------
 From ../..//2x2_1_1_1_1_CNB_opt.out
 -----------------------------------
 Symbolic Z-matrix:
 Charge =  0 Multiplicity = 1

                          Input orientation:
 ---------------------------------------------------------------------
 Center     Atomic      Atomic             Coordinates (Angstroms)
 Number     Number       Type             X           Y           Z
 ---------------------------------------------------------------------
      1          6           0        3.938975   -1.773555   -0.245341
      2          6           0        4.003418   -0.801481    0.778322
      3          6           0        4.451655   -0.089444   -1.928942
      4          6           0        4.377758   -1.398251   -1.569602
      5          6           0        4.083040    0.939507   -0.991025
      6          6           0        4.069194    0.610097    0.404481
      7          6           0        3.759719    1.646266    1.299238
      8          6           0        3.501143    2.136649   -1.429940
      9          6           0        2.828992    2.983432   -0.534849
     10          6           0        3.109259    2.807594    0.860394
     11          6           0        2.476672    3.698635    1.798583
     12          6           0        1.359694    4.385356    1.440367
     13          6           0        1.632417    3.735712   -0.907517
     14          6           0        0.799142    4.238739    0.116972
     15          6           0       -0.263047    3.708847   -2.430874
     16          6           0        1.090764    3.674433   -2.227610
     17          6           0       -1.160781    3.804168   -1.322993
     18          6           0       -0.630470    4.275114   -0.095338
     19          6           0       -1.548626    4.456478    0.992289
     20          6           0       -2.758388    3.824384    0.993364
     21          6           0       -2.447505    3.131706   -1.321821
     22          6           0       -3.135354    2.966303   -0.093116
     23          6           0       -3.627865    1.208483   -2.223295
     24          6           0       -2.883188    2.339277   -2.428444
     25          6           0       -3.986046    0.800062   -0.902461
     26          6           0       -3.921619    1.772151    0.121189
     27          6           0       -4.360429    1.396866    1.445456
     28          6           0       -4.434313    0.088068    1.804812
     29          6           0       -4.051849   -0.611522   -0.528602
     30          6           0       -4.065684   -0.940902    0.866913
     31          6           0       -3.483794   -2.138031    1.305850
     32          6           0       -3.742413   -1.647716   -1.423335
     33          6           0       -3.091949   -2.809040   -0.984470
     34          6           0       -2.811651   -2.984839    0.410767
     35          6           0       -1.342395   -4.386819   -1.564433
     36          6           0       -2.459385   -3.700112   -1.922644
     37          6           0       -0.781810   -4.240156   -0.241058
     38          6           0       -1.615064   -3.737099    0.783432
     39          6           0       -1.073387   -3.675771    2.103514
     40          6           0        0.280426   -3.710188    2.306758
     41          6           0        0.647809   -4.276513   -0.028776
     42          6           0        1.178143   -3.805551    1.198867
     43          6           0        2.775700   -3.825764   -1.117517
     44          6           0        1.565935   -4.457863   -1.116422
     45          6           0        3.152701   -2.967715   -0.031034
     46          6           0        2.464875   -3.133122    1.197681
     47          6           0        2.900626   -2.340732    2.304318
     48          6           0        3.645302   -1.209945    2.099170
     49          1           0        4.669214    0.189298   -2.957203
     50          1           0        4.549489   -2.165887   -2.316711
     51          1           0        3.819419    1.482241    2.370999
     52          1           0        3.399134    2.278583   -2.501663
     53          1           0        2.831192    3.718679    2.826332
     54          1           0        0.828782    4.965317    2.187830
     55          1           0       -0.648241    3.536060   -3.430434
     56          1           0        1.743710    3.476511   -3.071758
     57          1           0       -1.242225    5.006872    1.875511
     58          1           0       -3.383963    3.887893    1.877396
     59          1           0       -3.839145    0.558657   -3.066607
     60          1           0       -2.522319    2.555721   -3.428575
     61          1           0       -4.532190    2.164518    2.192541
     62          1           0       -4.651886   -0.190669    2.833072
     63          1           0       -3.381795   -2.279958    2.377575
     64          1           0       -3.802149   -1.483733   -2.495101
     65          1           0       -0.811507   -4.966813   -2.311887
     66          1           0       -2.813931   -3.720195   -2.950383
     67          1           0       -1.726316   -3.477803    2.947664
     68          1           0        0.665636   -3.537351    3.306303
     69          1           0        3.401236   -3.889243   -2.001579
     70          1           0        1.259508   -5.008215   -1.999661
     71          1           0        2.539838   -2.557243    3.304465
     72          1           0        3.856676   -0.560162    2.942494
 ---------------------------------------------------------------------

 SCF Done:  E(RB3LYP) =  -1843.89406040     A.U. after   14 cycles

 Alpha  occ. eigenvalues --  -10.19427 -10.19427 -10.19426 -10.19426 -10.19414
 Alpha  occ. eigenvalues --  -10.19414 -10.19413 -10.19413 -10.19371 -10.19371
 Alpha  occ. eigenvalues --  -10.19357 -10.19357 -10.19354 -10.19354 -10.19343
 Alpha  occ. eigenvalues --  -10.19343 -10.19308 -10.19308 -10.19299 -10.19299
 Alpha  occ. eigenvalues --  -10.19083 -10.19083 -10.19082 -10.19081 -10.18299
 Alpha  occ. eigenvalues --  -10.18299 -10.18298 -10.18298 -10.18233 -10.18233
 Alpha  occ. eigenvalues --  -10.18233 -10.18233 -10.18229 -10.18229 -10.18228
 Alpha  occ. eigenvalues --  -10.18228 -10.18215 -10.18215 -10.18164 -10.18164
 Alpha  occ. eigenvalues --  -10.18163 -10.18163 -10.18159 -10.18159 -10.18159
 Alpha  occ. eigenvalues --  -10.18159 -10.18150 -10.18150  -0.90479  -0.89881
 Alpha  occ. eigenvalues --   -0.89801  -0.87979  -0.87949  -0.85042  -0.84964
 Alpha  occ. eigenvalues --   -0.82384  -0.82054  -0.81765  -0.80921  -0.80301
 Alpha  occ. eigenvalues --   -0.78978  -0.78908  -0.77034  -0.76785  -0.75309
 Alpha  occ. eigenvalues --   -0.75236  -0.74148  -0.73540  -0.72338  -0.72035
 Alpha  occ. eigenvalues --   -0.71298  -0.70355  -0.66678  -0.64740  -0.64726
 Alpha  occ. eigenvalues --   -0.63721  -0.63676  -0.63236  -0.62684  -0.62014
 Alpha  occ. eigenvalues --   -0.61820  -0.60827  -0.60230  -0.58916  -0.57198
 Alpha  occ. eigenvalues --   -0.55073  -0.54699  -0.54305  -0.53971  -0.53951
 Alpha  occ. eigenvalues --   -0.53623  -0.51463  -0.51233  -0.50883  -0.50779
 Alpha  occ. eigenvalues --   -0.50531  -0.49656  -0.48141  -0.48043  -0.46793
 Alpha  occ. eigenvalues --   -0.46733  -0.46448  -0.46411  -0.45275  -0.44692
 Alpha  occ. eigenvalues --   -0.44502  -0.44330  -0.44197  -0.43428  -0.43176
 Alpha  occ. eigenvalues --   -0.42871  -0.42807  -0.42712  -0.42506  -0.42250
 Alpha  occ. eigenvalues --   -0.42079  -0.42062  -0.41962  -0.41030  -0.40944
 Alpha  occ. eigenvalues --   -0.40862  -0.40604  -0.40173  -0.40172  -0.39974
 Alpha  occ. eigenvalues --   -0.38851  -0.38214  -0.36330  -0.36211  -0.36019
 Alpha  occ. eigenvalues --   -0.35419  -0.34902  -0.34540  -0.33985  -0.33970
 Alpha  occ. eigenvalues --   -0.33311  -0.33034  -0.32847  -0.32686  -0.32596
 Alpha  occ. eigenvalues --   -0.32423  -0.31775  -0.30579  -0.30004  -0.29712
 Alpha  occ. eigenvalues --   -0.28894  -0.27265  -0.26989  -0.24672  -0.24491
 Alpha  occ. eigenvalues --   -0.23224  -0.22830  -0.21913  -0.21522  -0.20399
 Alpha  occ. eigenvalues --   -0.19026
 Alpha virt. eigenvalues --   -0.08228  -0.06139  -0.05476  -0.04826  -0.04751
 Alpha virt. eigenvalues --   -0.03881  -0.03012  -0.02996  -0.01933  -0.00620
 Alpha virt. eigenvalues --    0.00936   0.01579   0.02910   0.03339   0.03788

 Mulliken charges:
               1
     1  C    0.007055
     2  C    0.040153
     3  C   -0.234703
     4  C   -0.211227
     5  C    0.062007
     6  C    0.010657
     7  C   -0.237242
     8  C   -0.237245
     9  C    0.010680
    10  C    0.062026
    11  C   -0.234709
    12  C   -0.211257
    13  C    0.040121
    14  C    0.007087
    15  C   -0.217939
    16  C   -0.221535
    17  C    0.026316
    18  C    0.023224
    19  C   -0.221553
    20  C   -0.221636
    21  C    0.026146
    22  C    0.023331
    23  C   -0.221539
    24  C   -0.217835
    25  C    0.040151
    26  C    0.007054
    27  C   -0.211226
    28  C   -0.234701
    29  C    0.010662
    30  C    0.062003
    31  C   -0.237248
    32  C   -0.237245
    33  C    0.062024
    34  C    0.010682
    35  C   -0.211262
    36  C   -0.234708
    37  C    0.007096
    38  C    0.040116
    39  C   -0.221533
    40  C   -0.217932
    41  C    0.023222
    42  C    0.026309
    43  C   -0.221637
    44  C   -0.221549
    45  C    0.023335
    46  C    0.026148
    47  C   -0.217840
    48  C   -0.221544
    49  H    0.193314
    50  H    0.197457
    51  H    0.197365
    52  H    0.197352
    53  H    0.193316
    54  H    0.197461
    55  H    0.195099
    56  H    0.196532
    57  H    0.195068
    58  H    0.195075
    59  H    0.196524
    60  H    0.195055
    61  H    0.197457
    62  H    0.193314
    63  H    0.197353
    64  H    0.197368
    65  H    0.197465
    66  H    0.193316
    67  H    0.196531
    68  H    0.195095
    69  H    0.195075
    70  H    0.195064
    71  H    0.195060
    72  H    0.196527
 Sum of Mulliken charges =  -0.00000

 Dipole moment (field-independent basis, Debye):
    X=             -0.0000    Y=             -0.0000    Z=             -0.0000  Tot=              0.0000
 Quadrupole moment (field-independent basis, Debye-Ang):
   XX=           -286.9983   YY=           -284.2145   ZZ=           -236.3678
   XY=             -1.9759   XZ=             -6.1839   YZ=             11.9209

 Normal termination of Gaussian 16 at Sat May 24 18:38:20 2025.
