 Gaussian 16, Revision B.01,
 Gaussian 16:  ES64L-G16RevB.01 20-Dec-2017

 ------------------------------------
 # B3LYP/6-311G* Pop=Hirshfeld NOSYMM
 ------------------------------------

 -------------------------------
 From ../..//2x3_2_1_CNB_opt.out
 -------------------------------
 Symbolic Z-matrix:
 Charge =  0 Multiplicity = 1

                          Input orientation:
 ---------------------------------------------------------------------
 Center     Atomic      Atomic             Coordinates (Angstroms)
 Number     Number       Type             X           Y           Z
 ---------------------------------------------------------------------
      1          6           0        3.989847   -1.778814    0.256360
      2          6           0        4.069178   -0.555063    0.947407
      3          6           0        4.492612   -0.680000   -1.858909
      4          6           0        4.424107   -1.818590   -1.122975
      5          6           0        4.122958    0.583227   -1.268490
      6          6           0        4.137127    0.687138    0.172967
      7          6           0        3.852734    1.935387    0.732882
      8          6           0        3.540273    1.593034   -2.029271
      9          6           0        2.878464    2.671650   -1.399290
     10          6           0        3.178563    2.925412   -0.014797
     11          6           0        2.513366    4.009276    0.615623
     12          6           0        1.728013    3.277550   -1.968900
     13          6           0        0.853711    4.025024   -1.188683
     14          6           0        1.344915    4.525800    0.078940
     15          6           0        0.485037    5.385652    0.871508
     16          6           0       -0.853353    5.368345    0.681033
     17          6           0       -0.609541    4.007707   -1.388213
     18          6           0       -1.436415    4.490354   -0.318083
     19          6           0       -2.697915    3.933822   -0.111448
     20          6           0       -1.232571    3.232709   -2.368231
     21          6           0       -2.474760    2.613268   -2.126874
     22          6           0       -3.148345    2.843540   -0.885733
     23          6           0       -3.691716    0.537824   -2.416748
     24          6           0       -2.936485    1.537332   -2.956038
     25          6           0       -4.045783    0.553785   -1.023317
     26          6           0       -3.966418    1.777512   -0.332211
     27          6           0       -4.400629    1.817224    1.047122
     28          6           0       -4.469200    0.678593    1.783006
     29          6           0       -4.113693   -0.688422   -0.248922
     30          6           0       -4.099603   -0.584606    1.192524
     31          6           0       -3.516947   -1.594484    1.953276
     32          6           0       -3.829191   -1.936636   -0.808916
     33          6           0       -3.155081   -2.926687   -0.061270
     34          6           0       -2.855114   -2.673043    1.323273
     35          6           0       -1.704687   -3.279001    1.892941
     36          6           0       -2.489827   -4.010532   -0.691716
     37          6           0       -1.321432   -4.527067   -0.154986
     38          6           0       -0.830312   -4.026352    1.112725
     39          6           0        0.876857   -5.369720   -0.756907
     40          6           0       -0.461515   -5.386961   -0.947478
     41          6           0        1.459874   -4.491692    0.242221
     42          6           0        0.632944   -4.009019    1.312291
     43          6           0        1.255896   -3.233937    2.292284
     44          6           0        2.721366   -3.935144    0.035615
     45          6           0        3.171751   -2.844817    0.809879
     46          6           0        2.498099   -2.614490    2.050970
     47          6           0        2.959716   -1.538486    2.880093
     48          6           0        3.714975   -0.538999    2.340797
     49          1           0        4.709288   -0.719706   -2.923608
     50          1           0        4.602570   -2.776985   -1.599905
     51          1           0        3.918883    2.084379    1.806046
     52          1           0        3.413281    1.440032   -3.099069
     53          1           0        2.805772    4.298007    1.623180
     54          1           0        1.425547    2.933817   -2.953847
     55          1           0        0.926490    5.947665    1.690918
     56          1           0       -1.519478    5.916899    1.342618
     57          1           0       -3.234323    4.226435    0.785870
     58          1           0       -0.677857    2.906636   -3.243505
     59          1           0       -3.931474   -0.330678   -3.021619
     60          1           0       -2.569101    1.459728   -3.976450
     61          1           0       -4.578995    2.775599    1.524129
     62          1           0       -4.685852    0.718276    2.847710
     63          1           0       -3.389976   -1.441510    3.023081
     64          1           0       -3.895238   -2.085522   -1.882100
     65          1           0       -1.402327   -2.935357    2.877953
     66          1           0       -2.782212   -4.299230   -1.699287
     67          1           0        1.543007   -5.918347   -1.418404
     68          1           0       -0.902944   -5.948978   -1.766899
     69          1           0        0.701109   -2.907777    3.167479
     70          1           0        3.257819   -4.227779   -0.861668
     71          1           0        2.592212   -1.460800    3.900455
     72          1           0        3.954607    0.329577    2.945611
 ---------------------------------------------------------------------

 SCF Done:  E(RB3LYP) =  -1843.87995747     A.U. after   15 cycles

 Alpha  occ. eigenvalues --  -10.19692 -10.19692 -10.19623 -10.19622 -10.19574
 Alpha  occ. eigenvalues --  -10.19574 -10.19551 -10.19551 -10.19496 -10.19496
 Alpha  occ. eigenvalues --  -10.19438 -10.19438 -10.19296 -10.19296 -10.19243
 Alpha  occ. eigenvalues --  -10.19243 -10.19238 -10.19238 -10.19217 -10.19217
 Alpha  occ. eigenvalues --  -10.19177 -10.19177 -10.19164 -10.19163 -10.18474
 Alpha  occ. eigenvalues --  -10.18474 -10.18427 -10.18427 -10.18426 -10.18426
 Alpha  occ. eigenvalues --  -10.18416 -10.18416 -10.18354 -10.18354 -10.18314
 Alpha  occ. eigenvalues --  -10.18314 -10.18310 -10.18310 -10.18305 -10.18305
 Alpha  occ. eigenvalues --  -10.18295 -10.18295 -10.18226 -10.18226 -10.18224
 Alpha  occ. eigenvalues --  -10.18224 -10.18223 -10.18223  -0.90442  -0.89889
 Alpha  occ. eigenvalues --   -0.89792  -0.88114  -0.88054  -0.85448  -0.85282
 Alpha  occ. eigenvalues --   -0.82882  -0.81929  -0.81365  -0.80313  -0.80250
 Alpha  occ. eigenvalues --   -0.79214  -0.79181  -0.77372  -0.76863  -0.76370
 Alpha  occ. eigenvalues --   -0.75768  -0.74073  -0.73318  -0.73008  -0.71986
 Alpha  occ. eigenvalues --   -0.70582  -0.69900  -0.67391  -0.65615  -0.64995
 Alpha  occ. eigenvalues --   -0.64176  -0.63400  -0.62651  -0.61907  -0.61870
 Alpha  occ. eigenvalues --   -0.61581  -0.60483  -0.60218  -0.58992  -0.57634
 Alpha  occ. eigenvalues --   -0.57154  -0.55518  -0.54571  -0.53641  -0.53621
 Alpha  occ. eigenvalues --   -0.53502  -0.51813  -0.51371  -0.50650  -0.50536
 Alpha  occ. eigenvalues --   -0.49515  -0.49268  -0.47964  -0.47739  -0.47685
 Alpha  occ. eigenvalues --   -0.46267  -0.46106  -0.45607  -0.45067  -0.44897
 Alpha  occ. eigenvalues --   -0.44772  -0.44418  -0.44330  -0.44173  -0.44140
 Alpha  occ. eigenvalues --   -0.43006  -0.42915  -0.42851  -0.42458  -0.42279
 Alpha  occ. eigenvalues --   -0.42265  -0.42114  -0.41599  -0.41495  -0.41289
 Alpha  occ. eigenvalues --   -0.40998  -0.40968  -0.40095  -0.40079  -0.39694
 Alpha  occ. eigenvalues --   -0.38444  -0.38158  -0.36365  -0.36263  -0.36244
 Alpha  occ. eigenvalues --   -0.35663  -0.35147  -0.35095  -0.34145  -0.33944
 Alpha  occ. eigenvalues --   -0.33630  -0.33357  -0.33009  -0.32970  -0.32240
 Alpha  occ. eigenvalues --   -0.32097  -0.31995  -0.30780  -0.30151  -0.29935
 Alpha  occ. eigenvalues --   -0.29400  -0.27418  -0.26986  -0.25654  -0.25244
 Alpha  occ. eigenvalues --   -0.23228  -0.22426  -0.22129  -0.21113  -0.19431
 Alpha  occ. eigenvalues --   -0.18372
 Alpha virt. eigenvalues --   -0.09163  -0.07555  -0.06097  -0.05526  -0.04369
 Alpha virt. eigenvalues --   -0.03923  -0.02277  -0.01626  -0.01413  -0.00124
 Alpha virt. eigenvalues --    0.00711   0.01414   0.02776   0.03061   0.03627

 Mulliken charges:
               1
     1  C    0.020523
     2  C    0.026252
     3  C   -0.222525
     4  C   -0.217545
     5  C    0.057496
     6  C   -0.001050
     7  C   -0.228579
     8  C   -0.254064
     9  C    0.059635
    10  C    0.057332
    11  C   -0.255325
    12  C   -0.224040
    13  C    0.006547
    14  C    0.044925
    15  C   -0.218161
    16  C   -0.227532
    17  C    0.024367
    18  C    0.043762
    19  C   -0.241295
    20  C   -0.236164
    21  C    0.066191
    22  C    0.010516
    23  C   -0.215345
    24  C   -0.233356
    25  C    0.026267
    26  C    0.020512
    27  C   -0.217535
    28  C   -0.222537
    29  C   -0.001073
    30  C    0.057520
    31  C   -0.254070
    32  C   -0.228571
    33  C    0.057322
    34  C    0.059644
    35  C   -0.224043
    36  C   -0.255318
    37  C    0.044904
    38  C    0.006560
    39  C   -0.227537
    40  C   -0.218150
    41  C    0.043765
    42  C    0.024358
    43  C   -0.236162
    44  C   -0.241294
    45  C    0.010510
    46  C    0.066204
    47  C   -0.233362
    48  C   -0.215335
    49  H    0.194980
    50  H    0.200439
    51  H    0.196344
    52  H    0.193861
    53  H    0.193663
    54  H    0.198355
    55  H    0.196181
    56  H    0.195575
    57  H    0.196028
    58  H    0.199455
    59  H    0.199186
    60  H    0.193368
    61  H    0.200436
    62  H    0.194979
    63  H    0.193860
    64  H    0.196339
    65  H    0.198356
    66  H    0.193664
    67  H    0.195578
    68  H    0.196181
    69  H    0.199453
    70  H    0.196025
    71  H    0.193367
    72  H    0.199181
 Sum of Mulliken charges =  -0.00000

 Dipole moment (field-independent basis, Debye):
    X=              0.0000    Y=              0.0000    Z=             -0.0001  Tot=              0.0001
 Quadrupole moment (field-independent basis, Debye-Ang):
   XX=           -287.8040   YY=           -277.2903   ZZ=           -246.2419
   XY=             -3.2126   XZ=             -5.1573   YZ=             22.8616

 Normal termination of Gaussian 16 at Fri May 23 06:34:47 2025.
