 Gaussian 16, Revision B.01,
 Gaussian 16:  ES64L-G16RevB.01 20-Dec-2017

 ------------------------------------
 # B3LYP/6-311G* Pop=Hirshfeld NOSYMM
 ------------------------------------

 ---------------------------------
 From ../..//2x3_1_1_1_CNB_opt.out
 ---------------------------------
 Symbolic Z-matrix:
 Charge =  0 Multiplicity = 1

                          Input orientation:
 ---------------------------------------------------------------------
 Center     Atomic      Atomic             Coordinates (Angstroms)
 Number     Number       Type             X           Y           Z
 ---------------------------------------------------------------------
      1          6           0        3.887695   -1.777068   -0.978240
      2          6           0        4.166571   -0.914936    0.102328
      3          6           0        4.249474    0.033520   -2.573523
      4          6           0        4.141489   -1.294886   -2.320253
      5          6           0        4.026653    0.987770   -1.512163
      6          6           0        4.156705    0.530754   -0.146198
      7          6           0        3.889114    1.441571    0.875285
      8          6           0        3.453109    2.225034   -1.779312
      9          6           0        2.842425    2.972722   -0.743335
     10          6           0        3.162774    2.629150    0.618202
     11          6           0        2.458837    3.289772    1.654155
     12          6           0        1.707796    3.779271   -1.000472
     13          6           0        0.817369    4.108751    0.020897
     14          6           0        1.264117    3.947382    1.386909
     15          6           0        0.327473    4.235508    2.448169
     16          6           0       -1.005222    4.220040    2.194751
     17          6           0       -0.624126    4.218600   -0.227797
     18          6           0       -1.503727    4.000489    0.852705
     19          6           0       -2.392956    3.614771   -1.786934
     20          6           0       -1.175449    4.193368   -1.543801
     21          6           0       -3.103882    2.964494   -0.729692
     22          6           0       -2.742892    3.301376    0.604112
     23          6           0       -3.441599    2.637827    1.661294
     24          6           0       -4.103471    1.463485    1.418247
     25          6           0       -3.887699    1.777070   -0.978232
     26          6           0       -4.166572    0.914939    0.102338
     27          6           0       -4.249482   -0.033520   -2.573512
     28          6           0       -4.141496    1.294886   -2.320244
     29          6           0       -4.026658   -0.987769   -1.512152
     30          6           0       -4.156706   -0.530752   -0.146186
     31          6           0       -3.889113   -1.441567    0.875297
     32          6           0       -3.453114   -2.225034   -1.779301
     33          6           0       -2.842427   -2.972721   -0.743324
     34          6           0       -3.162773   -2.629147    0.618213
     35          6           0       -2.458833   -3.289768    1.654165
     36          6           0       -1.707800   -3.779270   -1.000463
     37          6           0       -0.817369   -4.108749    0.020903
     38          6           0       -1.264114   -3.947378    1.386916
     39          6           0       -0.327468   -4.235503    2.448174
     40          6           0        1.005226   -4.220035    2.194753
     41          6           0        0.624124   -4.218598   -0.227794
     42          6           0        1.503728   -4.000485    0.852706
     43          6           0        2.392951   -3.614771   -1.786936
     44          6           0        1.175444   -4.193367   -1.543800
     45          6           0        3.103880   -2.964492   -0.729697
     46          6           0        2.742892   -3.301373    0.604109
     47          6           0        3.441603   -2.637823    1.661288
     48          6           0        4.103473   -1.463481    1.418238
     49          1           0        4.367113    0.396767   -3.591491
     50          1           0        4.188864   -2.004380   -3.140472
     51          1           0        3.986636    1.138376    1.913010
     52          1           0        3.267406    2.506586   -2.813890
     53          1           0        2.726770    3.085001    2.688751
     54          1           0        1.412319    3.897806   -2.038236
     55          1           0        0.697852    4.327269    3.466229
     56          1           0       -1.709734    4.316118    3.014998
     57          1           0       -2.734912    3.522338   -2.812105
     58          1           0       -0.585360    4.553571   -2.381162
     59          1           0       -3.326134    2.972923    2.686399
     60          1           0       -4.504261    0.900130    2.255581
     61          1           0       -4.367123   -0.396769   -3.591479
     62          1           0       -4.188873    2.004378   -3.140464
     63          1           0       -3.986632   -1.138371    1.913022
     64          1           0       -3.267414   -2.506587   -2.813879
     65          1           0       -2.726764   -3.084996    2.688761
     66          1           0       -1.412325   -3.897806   -2.038229
     67          1           0       -0.697844   -4.327263    3.466236
     68          1           0        1.709741   -4.316112    3.014999
     69          1           0        2.734904   -3.522339   -2.812108
     70          1           0        0.585354   -4.553571   -2.381158
     71          1           0        3.326140   -2.972917    2.686393
     72          1           0        4.504266   -0.900125    2.255570
 ---------------------------------------------------------------------

 SCF Done:  E(RB3LYP) =  -1843.88269053     A.U. after   14 cycles

 Alpha  occ. eigenvalues --  -10.19593 -10.19593 -10.19593 -10.19593 -10.19484
 Alpha  occ. eigenvalues --  -10.19484 -10.19484 -10.19484 -10.19426 -10.19426
 Alpha  occ. eigenvalues --  -10.19425 -10.19425 -10.19347 -10.19347 -10.19303
 Alpha  occ. eigenvalues --  -10.19303 -10.19262 -10.19262 -10.19223 -10.19223
 Alpha  occ. eigenvalues --  -10.19150 -10.19150 -10.19149 -10.19149 -10.18406
 Alpha  occ. eigenvalues --  -10.18406 -10.18406 -10.18406 -10.18380 -10.18380
 Alpha  occ. eigenvalues --  -10.18380 -10.18380 -10.18312 -10.18312 -10.18311
 Alpha  occ. eigenvalues --  -10.18311 -10.18282 -10.18282 -10.18281 -10.18281
 Alpha  occ. eigenvalues --  -10.18218 -10.18218 -10.18217 -10.18217 -10.18174
 Alpha  occ. eigenvalues --  -10.18174 -10.18174 -10.18174  -0.90470  -0.89925
 Alpha  occ. eigenvalues --   -0.89782  -0.88057  -0.88037  -0.85240  -0.85164
 Alpha  occ. eigenvalues --   -0.82312  -0.82106  -0.81854  -0.80717  -0.80357
 Alpha  occ. eigenvalues --   -0.78961  -0.78254  -0.78148  -0.77444  -0.74981
 Alpha  occ. eigenvalues --   -0.74805  -0.74745  -0.74334  -0.72388  -0.71900
 Alpha  occ. eigenvalues --   -0.70973  -0.69676  -0.67290  -0.65814  -0.64023
 Alpha  occ. eigenvalues --   -0.63923  -0.63658  -0.62765  -0.62479  -0.62246
 Alpha  occ. eigenvalues --   -0.61186  -0.60783  -0.60159  -0.58934  -0.58687
 Alpha  occ. eigenvalues --   -0.55902  -0.54480  -0.54290  -0.54123  -0.53871
 Alpha  occ. eigenvalues --   -0.52713  -0.52629  -0.51306  -0.50224  -0.50121
 Alpha  occ. eigenvalues --   -0.50102  -0.49884  -0.48654  -0.47837  -0.47553
 Alpha  occ. eigenvalues --   -0.46131  -0.45953  -0.45423  -0.45410  -0.45185
 Alpha  occ. eigenvalues --   -0.44951  -0.44658  -0.43829  -0.43536  -0.43379
 Alpha  occ. eigenvalues --   -0.43288  -0.43195  -0.42572  -0.42480  -0.42344
 Alpha  occ. eigenvalues --   -0.42299  -0.41349  -0.41319  -0.41226  -0.41113
 Alpha  occ. eigenvalues --   -0.41101  -0.40816  -0.40451  -0.39998  -0.39818
 Alpha  occ. eigenvalues --   -0.38532  -0.38402  -0.37380  -0.36835  -0.35241
 Alpha  occ. eigenvalues --   -0.35138  -0.35075  -0.34845  -0.34319  -0.34166
 Alpha  occ. eigenvalues --   -0.33298  -0.33271  -0.32955  -0.32620  -0.32457
 Alpha  occ. eigenvalues --   -0.32168  -0.31809  -0.31344  -0.30546  -0.29365
 Alpha  occ. eigenvalues --   -0.28385  -0.27823  -0.27747  -0.24532  -0.24182
 Alpha  occ. eigenvalues --   -0.24000  -0.23604  -0.21683  -0.21245  -0.19799
 Alpha  occ. eigenvalues --   -0.18062
 Alpha virt. eigenvalues --   -0.08981  -0.07413  -0.05552  -0.05052  -0.03786
 Alpha virt. eigenvalues --   -0.03740  -0.03194  -0.03085  -0.00669  -0.00178
 Alpha virt. eigenvalues --   -0.00176   0.01191   0.02353   0.03377   0.03849

 Mulliken charges:
               1
     1  C    0.010760
     2  C    0.047606
     3  C   -0.225146
     4  C   -0.219640
     5  C    0.059614
     6  C   -0.007714
     7  C   -0.228344
     8  C   -0.250735
     9  C    0.061629
    10  C    0.061686
    11  C   -0.250775
    12  C   -0.228331
    13  C   -0.007777
    14  C    0.059698
    15  C   -0.225178
    16  C   -0.219550
    17  C    0.047619
    18  C    0.010712
    19  C   -0.209007
    20  C   -0.230267
    21  C    0.015192
    22  C    0.015133
    23  C   -0.209024
    24  C   -0.230339
    25  C    0.010760
    26  C    0.047605
    27  C   -0.225146
    28  C   -0.219641
    29  C    0.059614
    30  C   -0.007714
    31  C   -0.228344
    32  C   -0.250735
    33  C    0.061629
    34  C    0.061685
    35  C   -0.250775
    36  C   -0.228331
    37  C   -0.007777
    38  C    0.059697
    39  C   -0.225178
    40  C   -0.219549
    41  C    0.047619
    42  C    0.010712
    43  C   -0.209008
    44  C   -0.230267
    45  C    0.015193
    46  C    0.015132
    47  C   -0.209023
    48  C   -0.230340
    49  H    0.193949
    50  H    0.203384
    51  H    0.194976
    52  H    0.193365
    53  H    0.193371
    54  H    0.194979
    55  H    0.193938
    56  H    0.203349
    57  H    0.190261
    58  H    0.200156
    59  H    0.190281
    60  H    0.200172
    61  H    0.193949
    62  H    0.203384
    63  H    0.194976
    64  H    0.193365
    65  H    0.193371
    66  H    0.194978
    67  H    0.193938
    68  H    0.203348
    69  H    0.190261
    70  H    0.200156
    71  H    0.190281
    72  H    0.200172
 Sum of Mulliken charges =  -0.00000

 Dipole moment (field-independent basis, Debye):
    X=              0.0000    Y=              0.0000    Z=             -0.0002  Tot=              0.0002
 Quadrupole moment (field-independent basis, Debye-Ang):
   XX=           -288.7561   YY=           -288.5967   ZZ=           -233.5639
   XY=             -1.2610   XZ=              0.0001   YZ=              0.0000

 Normal termination of Gaussian 16 at Fri May 23 18:24:22 2025.
