 Gaussian 16, Revision B.01,
 Gaussian 16:  ES64L-G16RevB.01 20-Dec-2017

 ------------------------------------
 # B3LYP/6-311G* Pop=Hirshfeld NOSYMM
 ------------------------------------

 ------------------------------
 From ../..//2x3_m3_CNB_opt.out
 ------------------------------
 Symbolic Z-matrix:
 Charge =  0 Multiplicity = 1

                          Input orientation:
 ---------------------------------------------------------------------
 Center     Atomic      Atomic             Coordinates (Angstroms)
 Number     Number       Type             X           Y           Z
 ---------------------------------------------------------------------
      1          6           0        3.938886   -1.790098   -1.335761
      2          6           0        4.216234   -0.926864   -0.231724
      3          6           0        4.306042    0.013039   -2.931048
      4          6           0        4.200952   -1.312868   -2.681404
      5          6           0        4.080851    0.970203   -1.863759
      6          6           0        4.212647    0.524666   -0.487344
      7          6           0        3.949984    1.439368    0.522192
      8          6           0        3.506363    2.198140   -2.139420
      9          6           0        2.881794    2.953898   -1.107363
     10          6           0        3.213025    2.629654    0.263775
     11          6           0        2.518233    3.279785    1.300226
     12          6           0        1.752519    3.745133   -1.367841
     13          6           0        0.855462    4.062412   -0.331382
     14          6           0        1.295836    3.917775    1.039749
     15          6           0        0.337429    4.124225    2.071835
     16          6           0       -0.540481    4.168513   -0.589753
     17          6           0       -1.473354    3.980640    0.419839
     18          6           0       -1.017142    4.068846    1.796234
     19          6           0       -1.970456    3.828149    2.863565
     20          6           0       -3.099236    3.124583    2.613998
     21          6           0       -2.763631    3.315730    0.164343
     22          6           0       -3.402405    2.672299    1.268390
     23          6           0       -4.126398    1.492608    1.047630
     24          6           0       -3.224690    2.975711   -1.114991
     25          6           0       -3.938881    1.790108   -1.335749
     26          6           0       -4.216228    0.926870   -0.231714
     27          6           0       -4.306040   -0.013026   -2.931040
     28          6           0       -4.200949    1.312881   -2.681392
     29          6           0       -4.080847   -0.970192   -1.863753
     30          6           0       -4.212641   -0.524659   -0.487337
     31          6           0       -3.949977   -1.439363    0.522195
     32          6           0       -3.506361   -2.198129   -2.139419
     33          6           0       -2.881789   -2.953890   -1.107366
     34          6           0       -3.213018   -2.629649    0.263774
     35          6           0       -2.518224   -3.279782    1.300222
     36          6           0       -1.752515   -3.745123   -1.367848
     37          6           0       -0.855456   -4.062404   -0.331391
     38          6           0       -1.295827   -3.917771    1.039741
     39          6           0       -0.337419   -4.124224    2.071824
     40          6           0        0.540487   -4.168504   -0.589765
     41          6           0        1.473362   -3.980635    0.419826
     42          6           0        1.017152   -4.068845    1.796221
     43          6           0        1.970468   -3.828151    2.863552
     44          6           0        3.099248   -3.124584    2.613984
     45          6           0        2.763639   -3.315725    0.164329
     46          6           0        3.402414   -2.672296    1.268376
     47          6           0        4.126407   -1.492605    1.047619
     48          6           0        3.224696   -2.975703   -1.115005
     49          1           0        4.414899    0.382947   -3.947588
     50          1           0        4.224304   -2.036893   -3.492456
     51          1           0        4.047287    1.141055    1.561616
     52          1           0        3.324229    2.475864   -3.175598
     53          1           0        2.787508    3.066603    2.332624
     54          1           0        1.439283    3.885940   -2.400242
     55          1           0        0.667862    4.090439    3.108002
     56          1           0       -0.850201    4.117506   -1.629152
     57          1           0       -1.692103    4.095008    3.880099
     58          1           0       -3.752690    2.812095    3.425112
     59          1           0       -4.463406    0.935922    1.918190
     60          1           0       -2.885573    3.531098   -1.985553
     61          1           0       -4.414899   -0.382931   -3.947581
     62          1           0       -4.224301    2.036908   -3.492443
     63          1           0       -4.047278   -1.141054    1.561621
     64          1           0       -3.324226   -2.475849   -3.175599
     65          1           0       -2.787497   -3.066603    2.332621
     66          1           0       -1.439281   -3.885927   -2.400250
     67          1           0       -0.667849   -4.090441    3.107992
     68          1           0        0.850206   -4.117492   -1.629165
     69          1           0        1.692118   -4.095013    3.880085
     70          1           0        3.752704   -2.812098    3.425097
     71          1           0        4.463418   -0.935921    1.918179
     72          1           0        2.885578   -3.531088   -1.985568
 ---------------------------------------------------------------------

 SCF Done:  E(RB3LYP) =  -1843.86893491     A.U. after   14 cycles

 Alpha  occ. eigenvalues --  -10.19720 -10.19720 -10.19719 -10.19719 -10.19551
 Alpha  occ. eigenvalues --  -10.19551 -10.19549 -10.19549 -10.19467 -10.19467
 Alpha  occ. eigenvalues --  -10.19466 -10.19466 -10.19361 -10.19361 -10.19360
 Alpha  occ. eigenvalues --  -10.19360 -10.19305 -10.19305 -10.19305 -10.19305
 Alpha  occ. eigenvalues --  -10.19295 -10.19295 -10.19294 -10.19294 -10.18558
 Alpha  occ. eigenvalues --  -10.18558 -10.18557 -10.18557 -10.18529 -10.18529
 Alpha  occ. eigenvalues --  -10.18529 -10.18529 -10.18440 -10.18440 -10.18440
 Alpha  occ. eigenvalues --  -10.18440 -10.18371 -10.18371 -10.18370 -10.18370
 Alpha  occ. eigenvalues --  -10.18362 -10.18362 -10.18361 -10.18361 -10.18288
 Alpha  occ. eigenvalues --  -10.18288 -10.18288 -10.18288  -0.90437  -0.89876
 Alpha  occ. eigenvalues --   -0.89841  -0.88209  -0.88132  -0.85647  -0.85461
 Alpha  occ. eigenvalues --   -0.82729  -0.82388  -0.80883  -0.80441  -0.80407
 Alpha  occ. eigenvalues --   -0.78926  -0.78878  -0.78307  -0.77947  -0.75367
 Alpha  occ. eigenvalues --   -0.75309  -0.75042  -0.74372  -0.72424  -0.71497
 Alpha  occ. eigenvalues --   -0.71201  -0.68943  -0.68199  -0.65654  -0.65343
 Alpha  occ. eigenvalues --   -0.64100  -0.63547  -0.62584  -0.61848  -0.61298
 Alpha  occ. eigenvalues --   -0.61251  -0.60799  -0.59637  -0.59192  -0.58467
 Alpha  occ. eigenvalues --   -0.58039  -0.56184  -0.54198  -0.53770  -0.53632
 Alpha  occ. eigenvalues --   -0.53096  -0.52090  -0.51688  -0.50663  -0.49966
 Alpha  occ. eigenvalues --   -0.49129  -0.48714  -0.48330  -0.47613  -0.47135
 Alpha  occ. eigenvalues --   -0.46960  -0.46346  -0.45970  -0.45550  -0.45257
 Alpha  occ. eigenvalues --   -0.44421  -0.44231  -0.44191  -0.43800  -0.43221
 Alpha  occ. eigenvalues --   -0.43158  -0.43094  -0.42793  -0.42618  -0.42483
 Alpha  occ. eigenvalues --   -0.42453  -0.42182  -0.41855  -0.41764  -0.41186
 Alpha  occ. eigenvalues --   -0.40944  -0.40915  -0.40409  -0.39869  -0.39550
 Alpha  occ. eigenvalues --   -0.38490  -0.38106  -0.37347  -0.36909  -0.35676
 Alpha  occ. eigenvalues --   -0.35631  -0.35187  -0.34887  -0.34607  -0.34228
 Alpha  occ. eigenvalues --   -0.33505  -0.33333  -0.32954  -0.32930  -0.32881
 Alpha  occ. eigenvalues --   -0.32062  -0.31828  -0.31437  -0.31164  -0.28955
 Alpha  occ. eigenvalues --   -0.28949  -0.28317  -0.28108  -0.24989  -0.24680
 Alpha  occ. eigenvalues --   -0.24485  -0.22994  -0.21553  -0.20682  -0.19451
 Alpha  occ. eigenvalues --   -0.17396
 Alpha virt. eigenvalues --   -0.09945  -0.07928  -0.06663  -0.05308  -0.04993
 Alpha virt. eigenvalues --   -0.02582  -0.02471  -0.02351  -0.00357   0.00163
 Alpha virt. eigenvalues --    0.00321   0.01706   0.01752   0.02973   0.03384

 Mulliken charges:
               1
     1  C    0.043315
     2  C    0.032483
     3  C   -0.218309
     4  C   -0.226919
     5  C    0.046604
     6  C    0.001788
     7  C   -0.223189
     8  C   -0.243562
     9  C    0.055058
    10  C    0.054538
    11  C   -0.249084
    12  C   -0.249053
    13  C    0.054502
    14  C    0.055094
    15  C   -0.243598
    16  C   -0.223171
    17  C    0.001782
    18  C    0.046650
    19  C   -0.218315
    20  C   -0.226929
    21  C    0.032440
    22  C    0.043349
    23  C   -0.249646
    24  C   -0.249605
    25  C    0.043315
    26  C    0.032483
    27  C   -0.218308
    28  C   -0.226920
    29  C    0.046603
    30  C    0.001790
    31  C   -0.223189
    32  C   -0.243562
    33  C    0.055058
    34  C    0.054538
    35  C   -0.249084
    36  C   -0.249052
    37  C    0.054501
    38  C    0.055094
    39  C   -0.243598
    40  C   -0.223171
    41  C    0.001782
    42  C    0.046650
    43  C   -0.218316
    44  C   -0.226929
    45  C    0.032442
    46  C    0.043348
    47  C   -0.249645
    48  C   -0.249606
    49  H    0.195252
    50  H    0.196797
    51  H    0.196963
    52  H    0.194184
    53  H    0.193179
    54  H    0.193176
    55  H    0.194184
    56  H    0.196967
    57  H    0.195249
    58  H    0.196797
    59  H    0.200516
    60  H    0.200512
    61  H    0.195252
    62  H    0.196797
    63  H    0.196963
    64  H    0.194184
    65  H    0.193179
    66  H    0.193176
    67  H    0.194184
    68  H    0.196967
    69  H    0.195250
    70  H    0.196797
    71  H    0.200516
    72  H    0.200512
 Sum of Mulliken charges =  -0.00000

 Dipole moment (field-independent basis, Debye):
    X=              0.0000    Y=              0.0000    Z=             -0.0000  Tot=              0.0000
 Quadrupole moment (field-independent basis, Debye-Ang):
   XX=           -290.3506   YY=           -291.0050   ZZ=           -234.3849
   XY=             -0.6308   XZ=              0.0000   YZ=             -0.0001

 Normal termination of Gaussian 16 at Fri May 23 19:02:28 2025.
