 Gaussian 16, Revision B.01,
 Gaussian 16:  ES64L-G16RevB.01 20-Dec-2017

 ------------------------------------
 # B3LYP/6-311G* Pop=Hirshfeld NOSYMM
 ------------------------------------

 -------------------------------
 From ../..//2x4_1_1_CNB_opt.out
 -------------------------------
 Symbolic Z-matrix:
 Charge =  0 Multiplicity = 1

                          Input orientation:
 ---------------------------------------------------------------------
 Center     Atomic      Atomic             Coordinates (Angstroms)
 Number     Number       Type             X           Y           Z
 ---------------------------------------------------------------------
      1          6           0        4.287315   -1.756067    1.149959
      2          6           0        3.823787   -0.658589    1.914442
      3          6           0        5.518548   -0.269059   -0.339595
      4          6           0        5.324461   -1.511881    0.160868
      5          6           0        4.688461    0.829557    0.105082
      6          6           0        4.021612    0.701547    1.388840
      7          6           0        3.312953    1.799335    1.859632
      8          6           0        4.358712    1.871192   -0.742630
      9          6           0        3.297016    2.759335   -0.412944
     10          6           0        2.888160    2.830136    0.975222
     11          6           0        1.845580    3.708503    1.323842
     12          6           0        2.471557    3.326603   -1.394694
     13          6           0        1.213929    3.852988   -1.046142
     14          6           0        0.964088    4.184173    0.342046
     15          6           0       -0.310891    4.723031    0.671652
     16          6           0        0.103057    3.760222   -1.930654
     17          6           0       -1.197298    3.889448   -1.460082
     18          6           0       -1.388099    4.540914   -0.176264
     19          6           0       -2.744550    4.777319    0.268491
     20          6           0       -3.761476    4.037107   -0.232254
     21          6           0       -2.316913    3.092587   -1.986167
     22          6           0       -3.504983    3.003384   -1.221767
     23          6           0       -2.849012    0.956060   -3.013822
     24          6           0       -2.131706    2.130901   -3.013730
     25          6           0       -3.789382    0.681336   -1.986575
     26          6           0       -4.252858    1.778781   -1.222008
     27          6           0       -5.289888    1.534560   -0.232836
     28          6           0       -5.484009    0.291696    0.267541
     29          6           0       -3.987149   -0.678797   -1.461001
     30          6           0       -4.654012   -0.806906   -0.177282
     31          6           0       -4.324266   -1.848626    0.670365
     32          6           0       -3.278394   -1.776529   -1.931834
     33          6           0       -2.853634   -2.807377   -1.047504
     34          6           0       -3.262576   -2.736726    0.340641
     35          6           0       -2.437137   -3.304084    1.322393
     36          6           0       -1.811006   -3.685709   -1.396148
     37          6           0       -0.929576   -4.161441   -0.414359
     38          6           0       -1.179496   -3.830394    0.973853
     39          6           0       -0.068644   -3.737654    1.858428
     40          6           0        0.345442   -4.700270   -0.743939
     41          6           0        1.422593   -4.518151    0.104024
     42          6           0        1.231717   -3.866745    1.387879
     43          6           0        3.795982   -4.014371    0.160167
     44          6           0        2.779076   -4.754546   -0.340657
     45          6           0        3.539427   -2.980645    1.149675
     46          6           0        2.351300   -3.069833    1.913992
     47          6           0        2.165957   -2.108082    2.941450
     48          6           0        2.883269   -0.933233    2.941558
     49          1           0        6.217904   -0.100610   -1.154867
     50          1           0        5.884776   -2.346895   -0.245913
     51          1           0        2.850831    1.774471    2.841868
     52          1           0        4.772726    1.889913   -1.748616
     53          1           0        1.577667    3.828123    2.371527
     54          1           0        2.700451    3.143195   -2.442406
     55          1           0       -0.483487    5.099637    1.677708
     56          1           0        0.292077    3.337685   -2.912839
     57          1           0       -2.914192    5.475994    1.084099
     58          1           0       -4.760164    4.153763    0.174782
     59          1           0       -2.582721    0.183989   -3.728697
     60          1           0       -1.323165    2.246879   -3.728469
     61          1           0       -5.850071    2.369568    0.174136
     62          1           0       -6.183282    0.123242    1.082882
     63          1           0       -4.738274   -1.867379    1.676353
     64          1           0       -2.816207   -1.751548   -2.914035
     65          1           0       -2.666089   -3.120749    2.370105
     66          1           0       -1.543060   -3.805245   -2.443834
     67          1           0       -0.257736   -3.315229    2.840648
     68          1           0        0.518072   -5.076866   -1.749992
     69          1           0        4.794693   -4.131020   -0.246814
     70          1           0        2.948748   -5.453199   -1.156278
     71          1           0        1.357271   -2.223955    3.656041
     72          1           0        2.616811   -0.161093    3.656292
 ---------------------------------------------------------------------

 SCF Done:  E(RB3LYP) =  -1843.86384008     A.U. after   14 cycles

 Alpha  occ. eigenvalues --  -10.19660 -10.19660 -10.19660 -10.19659 -10.19502
 Alpha  occ. eigenvalues --  -10.19502 -10.19492 -10.19492 -10.19457 -10.19457
 Alpha  occ. eigenvalues --  -10.19429 -10.19429 -10.19401 -10.19401 -10.19399
 Alpha  occ. eigenvalues --  -10.19399 -10.19270 -10.19270 -10.19269 -10.19269
 Alpha  occ. eigenvalues --  -10.19171 -10.19171 -10.19170 -10.19170 -10.18460
 Alpha  occ. eigenvalues --  -10.18460 -10.18460 -10.18460 -10.18457 -10.18457
 Alpha  occ. eigenvalues --  -10.18457 -10.18457 -10.18352 -10.18352 -10.18352
 Alpha  occ. eigenvalues --  -10.18352 -10.18304 -10.18304 -10.18297 -10.18297
 Alpha  occ. eigenvalues --  -10.18296 -10.18296 -10.18244 -10.18244 -10.18226
 Alpha  occ. eigenvalues --  -10.18226 -10.18226 -10.18226  -0.90408  -0.89881
 Alpha  occ. eigenvalues --   -0.89760  -0.88154  -0.88035  -0.85363  -0.85344
 Alpha  occ. eigenvalues --   -0.82581  -0.81869  -0.81788  -0.80393  -0.80176
 Alpha  occ. eigenvalues --   -0.79218  -0.78955  -0.77441  -0.76599  -0.76437
 Alpha  occ. eigenvalues --   -0.76426  -0.73454  -0.73087  -0.73072  -0.72898
 Alpha  occ. eigenvalues --   -0.70305  -0.69052  -0.68260  -0.65996  -0.64156
 Alpha  occ. eigenvalues --   -0.63863  -0.63633  -0.63495  -0.61344  -0.61151
 Alpha  occ. eigenvalues --   -0.60844  -0.60546  -0.60120  -0.60047  -0.59344
 Alpha  occ. eigenvalues --   -0.56610  -0.54517  -0.54223  -0.53938  -0.53878
 Alpha  occ. eigenvalues --   -0.53298  -0.52226  -0.51058  -0.50710  -0.50541
 Alpha  occ. eigenvalues --   -0.49890  -0.49216  -0.47517  -0.47404  -0.47051
 Alpha  occ. eigenvalues --   -0.46766  -0.46393  -0.46108  -0.45984  -0.45238
 Alpha  occ. eigenvalues --   -0.44797  -0.44578  -0.44079  -0.43621  -0.43284
 Alpha  occ. eigenvalues --   -0.43077  -0.42926  -0.42712  -0.42531  -0.42326
 Alpha  occ. eigenvalues --   -0.41941  -0.41930  -0.41926  -0.41340  -0.41157
 Alpha  occ. eigenvalues --   -0.41089  -0.41047  -0.40449  -0.39947  -0.39737
 Alpha  occ. eigenvalues --   -0.38626  -0.38531  -0.36390  -0.36287  -0.36192
 Alpha  occ. eigenvalues --   -0.36047  -0.34941  -0.34723  -0.34103  -0.33928
 Alpha  occ. eigenvalues --   -0.33674  -0.33202  -0.32840  -0.32775  -0.32730
 Alpha  occ. eigenvalues --   -0.32273  -0.31513  -0.30979  -0.30288  -0.29987
 Alpha  occ. eigenvalues --   -0.29700  -0.26728  -0.26449  -0.26077  -0.25927
 Alpha  occ. eigenvalues --   -0.22861  -0.22249  -0.22156  -0.22082  -0.18764
 Alpha  occ. eigenvalues --   -0.17483
 Alpha virt. eigenvalues --   -0.10120  -0.08386  -0.05286  -0.04859  -0.04559
 Alpha virt. eigenvalues --   -0.04244  -0.01861  -0.01497  -0.01170  -0.00784
 Alpha virt. eigenvalues --    0.00752   0.01421   0.01499   0.03190   0.03925

 Mulliken charges:
               1
     1  C   -0.000125
     2  C    0.044722
     3  C   -0.223788
     4  C   -0.213379
     5  C    0.051731
     6  C   -0.001760
     7  C   -0.226313
     8  C   -0.242601
     9  C    0.052606
    10  C    0.049108
    11  C   -0.246692
    12  C   -0.246711
    13  C    0.049063
    14  C    0.052640
    15  C   -0.242660
    16  C   -0.226274
    17  C   -0.001858
    18  C    0.051832
    19  C   -0.223805
    20  C   -0.213342
    21  C    0.044824
    22  C   -0.000212
    23  C   -0.218640
    24  C   -0.218706
    25  C    0.044733
    26  C   -0.000138
    27  C   -0.213363
    28  C   -0.223802
    29  C   -0.001780
    30  C    0.051760
    31  C   -0.242609
    32  C   -0.226309
    33  C    0.049102
    34  C    0.052619
    35  C   -0.246715
    36  C   -0.246688
    37  C    0.052628
    38  C    0.049068
    39  C   -0.226277
    40  C   -0.242657
    41  C    0.051819
    42  C   -0.001848
    43  C   -0.213333
    44  C   -0.223800
    45  C   -0.000222
    46  C    0.044820
    47  C   -0.218695
    48  C   -0.218631
    49  H    0.195505
    50  H    0.198184
    51  H    0.197725
    52  H    0.194739
    53  H    0.193230
    54  H    0.193223
    55  H    0.194735
    56  H    0.197723
    57  H    0.195502
    58  H    0.198151
    59  H    0.195818
    60  H    0.195807
    61  H    0.198176
    62  H    0.195503
    63  H    0.194739
    64  H    0.197721
    65  H    0.193223
    66  H    0.193230
    67  H    0.197728
    68  H    0.194736
    69  H    0.198144
    70  H    0.195503
    71  H    0.195800
    72  H    0.195811
 Sum of Mulliken charges =  -0.00000

 Dipole moment (field-independent basis, Debye):
    X=              0.0001    Y=              0.0001    Z=              0.0000  Tot=              0.0001
 Quadrupole moment (field-independent basis, Debye-Ang):
   XX=           -272.8566   YY=           -283.6536   ZZ=           -254.5170
   XY=            -10.4968   XZ=            -22.6944   YZ=             13.8543

 Normal termination of Gaussian 16 at Fri May 23 18:41:02 2025.
