 Gaussian 16, Revision B.01,
 Gaussian 16:  ES64L-G16RevB.01 20-Dec-2017

 ------------------------------------
 # B3LYP/6-311G* Pop=Hirshfeld NOSYMM
 ------------------------------------

 -----------------------------
 From ../..//4x1_2_CNB_opt.out
 -----------------------------
 Symbolic Z-matrix:
 Charge =  0 Multiplicity = 1

                          Input orientation:
 ---------------------------------------------------------------------
 Center     Atomic      Atomic             Coordinates (Angstroms)
 Number     Number       Type             X           Y           Z
 ---------------------------------------------------------------------
      1          6           0        3.956829   -1.383483   -1.095080
      2          6           0        4.105264   -0.925736    0.257267
      3          6           0        4.221616    0.881478   -1.912379
      4          6           0        4.235646   -0.456763   -2.160142
      5          6           0        4.006128    1.384499   -0.579756
      6          6           0        4.207964    0.508204    0.503461
      7          6           0        4.181536    1.054729    1.836116
      8          6           0        3.608629    2.264212    2.083869
      9          6           0        3.286323    2.628930   -0.333591
     10          6           0        2.952479    2.975521    1.018775
     11          6           0        1.824883    3.764929    1.281598
     12          6           0        2.586777    3.288486   -1.357919
     13          6           0        1.383482    3.956830   -1.095080
     14          6           0        0.925735    4.105265    0.257266
     15          6           0       -0.881479    4.221617   -1.912379
     16          6           0        0.456762    4.235647   -2.160142
     17          6           0       -1.384499    4.006129   -0.579755
     18          6           0       -0.508205    4.207965    0.503461
     19          6           0       -1.054729    4.181537    1.836116
     20          6           0       -2.264211    3.608630    2.083870
     21          6           0       -2.628930    3.286324   -0.333591
     22          6           0       -2.975521    2.952480    1.018775
     23          6           0       -3.764928    1.824883    1.281598
     24          6           0       -3.288486    2.586777   -1.357918
     25          6           0       -3.956829    1.383483   -1.095080
     26          6           0       -4.105264    0.925736    0.257267
     27          6           0       -4.221616   -0.881479   -1.912379
     28          6           0       -4.235646    0.456762   -2.160141
     29          6           0       -4.006129   -1.384499   -0.579755
     30          6           0       -4.207965   -0.508204    0.503461
     31          6           0       -4.181536   -1.054729    1.836117
     32          6           0       -3.608629   -2.264211    2.083870
     33          6           0       -3.286324   -2.628930   -0.333590
     34          6           0       -2.952480   -2.975521    1.018776
     35          6           0       -1.824883   -3.764928    1.281599
     36          6           0       -2.586777   -3.288486   -1.357918
     37          6           0       -1.383482   -3.956830   -1.095080
     38          6           0       -0.925736   -4.105265    0.257267
     39          6           0        0.881479   -4.221617   -1.912379
     40          6           0       -0.456763   -4.235647   -2.160141
     41          6           0        1.384499   -4.006129   -0.579755
     42          6           0        0.508204   -4.207965    0.503461
     43          6           0        1.054729   -4.181537    1.836117
     44          6           0        2.264211   -3.608630    2.083870
     45          6           0        2.628930   -3.286324   -0.333590
     46          6           0        2.975521   -2.952480    1.018775
     47          6           0        3.764928   -1.824883    1.281598
     48          6           0        3.288486   -2.586777   -1.357918
     49          1           0        4.303477    1.581207   -2.738617
     50          1           0        4.314699   -0.829442   -3.178493
     51          1           0        4.561180    0.461258    2.662358
     52          1           0        3.516567    2.633875    3.102228
     53          1           0        1.537527    3.891490    2.320712
     54          1           0        2.826401    3.085679   -2.397058
     55          1           0       -1.581208    4.303478   -2.738617
     56          1           0        0.829441    4.314700   -3.178494
     57          1           0       -0.461258    4.561182    2.662358
     58          1           0       -2.633875    3.516568    3.102229
     59          1           0       -3.891489    1.537527    2.320712
     60          1           0       -3.085679    2.826401   -2.397058
     61          1           0       -4.303477   -1.581207   -2.738617
     62          1           0       -4.314700    0.829441   -3.178493
     63          1           0       -4.561180   -0.461258    2.662358
     64          1           0       -3.516567   -2.633874    3.102229
     65          1           0       -1.537526   -3.891490    2.320713
     66          1           0       -2.826401   -3.085679   -2.397058
     67          1           0        1.581207   -4.303478   -2.738617
     68          1           0       -0.829442   -4.314701   -3.178493
     69          1           0        0.461258   -4.561181    2.662358
     70          1           0        2.633875   -3.516568    3.102229
     71          1           0        3.891490   -1.537527    2.320712
     72          1           0        3.085679   -2.826401   -2.397058
 ---------------------------------------------------------------------

 SCF Done:  E(RB3LYP) =  -1843.89080719     A.U. after   14 cycles

 Alpha  occ. eigenvalues --  -10.19540 -10.19540 -10.19540 -10.19540 -10.19498
 Alpha  occ. eigenvalues --  -10.19497 -10.19497 -10.19497 -10.19463 -10.19463
 Alpha  occ. eigenvalues --  -10.19463 -10.19462 -10.19457 -10.19456 -10.19456
 Alpha  occ. eigenvalues --  -10.19456 -10.19114 -10.19114 -10.19114 -10.19114
 Alpha  occ. eigenvalues --  -10.19113 -10.19113 -10.19113 -10.19113 -10.18348
 Alpha  occ. eigenvalues --  -10.18348 -10.18348 -10.18348 -10.18347 -10.18347
 Alpha  occ. eigenvalues --  -10.18347 -10.18347 -10.18314 -10.18314 -10.18314
 Alpha  occ. eigenvalues --  -10.18314 -10.18314 -10.18313 -10.18313 -10.18313
 Alpha  occ. eigenvalues --  -10.18199 -10.18199 -10.18199 -10.18199 -10.18199
 Alpha  occ. eigenvalues --  -10.18199 -10.18199 -10.18199  -0.90489  -0.89866
 Alpha  occ. eigenvalues --   -0.89866  -0.88086  -0.87982  -0.85182  -0.85182
 Alpha  occ. eigenvalues --   -0.83081  -0.81350  -0.81350  -0.81106  -0.80411
 Alpha  occ. eigenvalues --   -0.79088  -0.78930  -0.77273  -0.77273  -0.75206
 Alpha  occ. eigenvalues --   -0.75206  -0.74957  -0.73725  -0.71847  -0.71749
 Alpha  occ. eigenvalues --   -0.71749  -0.69899  -0.66953  -0.64668  -0.64644
 Alpha  occ. eigenvalues --   -0.64454  -0.64454  -0.62310  -0.62310  -0.61559
 Alpha  occ. eigenvalues --   -0.61559  -0.61445  -0.60567  -0.58879  -0.56597
 Alpha  occ. eigenvalues --   -0.55658  -0.55658  -0.54816  -0.53972  -0.53408
 Alpha  occ. eigenvalues --   -0.53408  -0.52812  -0.51239  -0.51113  -0.49880
 Alpha  occ. eigenvalues --   -0.49880  -0.48654  -0.48533  -0.48533  -0.46999
 Alpha  occ. eigenvalues --   -0.45975  -0.45906  -0.45808  -0.45808  -0.44635
 Alpha  occ. eigenvalues --   -0.44402  -0.44402  -0.44185  -0.44052  -0.43626
 Alpha  occ. eigenvalues --   -0.43626  -0.42885  -0.42843  -0.42495  -0.42495
 Alpha  occ. eigenvalues --   -0.41634  -0.41634  -0.41539  -0.41536  -0.41172
 Alpha  occ. eigenvalues --   -0.41159  -0.40399  -0.40399  -0.39890  -0.39581
 Alpha  occ. eigenvalues --   -0.38368  -0.38368  -0.37451  -0.36672  -0.35204
 Alpha  occ. eigenvalues --   -0.35148  -0.35148  -0.34703  -0.34358  -0.34358
 Alpha  occ. eigenvalues --   -0.33567  -0.33383  -0.32958  -0.32957  -0.32220
 Alpha  occ. eigenvalues --   -0.31948  -0.31948  -0.30750  -0.29975  -0.29964
 Alpha  occ. eigenvalues --   -0.28928  -0.27552  -0.27552  -0.24874  -0.24063
 Alpha  occ. eigenvalues --   -0.24063  -0.23393  -0.21281  -0.20814  -0.20814
 Alpha  occ. eigenvalues --   -0.18359
 Alpha virt. eigenvalues --   -0.08552  -0.06176  -0.06176  -0.05728  -0.04718
 Alpha virt. eigenvalues --   -0.02992  -0.02992  -0.02565  -0.01254  -0.01254
 Alpha virt. eigenvalues --    0.00029   0.02160   0.02791   0.04014   0.04014

 Mulliken charges:
               1
     1  C    0.064364
     2  C    0.005728
     3  C   -0.221117
     4  C   -0.229727
     5  C    0.025816
     6  C    0.025792
     7  C   -0.221110
     8  C   -0.229734
     9  C    0.005695
    10  C    0.064373
    11  C   -0.235647
    12  C   -0.235638
    13  C    0.064364
    14  C    0.005727
    15  C   -0.221116
    16  C   -0.229727
    17  C    0.025816
    18  C    0.025793
    19  C   -0.221110
    20  C   -0.229734
    21  C    0.005695
    22  C    0.064373
    23  C   -0.235647
    24  C   -0.235638
    25  C    0.064365
    26  C    0.005727
    27  C   -0.221116
    28  C   -0.229727
    29  C    0.025816
    30  C    0.025793
    31  C   -0.221111
    32  C   -0.229734
    33  C    0.005695
    34  C    0.064374
    35  C   -0.235647
    36  C   -0.235639
    37  C    0.064364
    38  C    0.005728
    39  C   -0.221117
    40  C   -0.229727
    41  C    0.025816
    42  C    0.025792
    43  C   -0.221110
    44  C   -0.229734
    45  C    0.005695
    46  C    0.064373
    47  C   -0.235646
    48  C   -0.235639
    49  H    0.202443
    50  H    0.193047
    51  H    0.202440
    52  H    0.193050
    53  H    0.195114
    54  H    0.195111
    55  H    0.202443
    56  H    0.193047
    57  H    0.202440
    58  H    0.193050
    59  H    0.195114
    60  H    0.195111
    61  H    0.202443
    62  H    0.193047
    63  H    0.202440
    64  H    0.193050
    65  H    0.195114
    66  H    0.195111
    67  H    0.202443
    68  H    0.193047
    69  H    0.202440
    70  H    0.193050
    71  H    0.195114
    72  H    0.195111
 Sum of Mulliken charges =  -0.00000

 Dipole moment (field-independent basis, Debye):
    X=             -0.0000    Y=              0.0000    Z=             -0.0001  Tot=              0.0001
 Quadrupole moment (field-independent basis, Debye-Ang):
   XX=           -288.5664   YY=           -288.5665   ZZ=           -233.6391
   XY=             -0.0000   XZ=              0.0000   YZ=             -0.0000

 Normal termination of Gaussian 16 at Thu May 22 16:35:30 2025.
