 Gaussian 16, Revision B.01,
 Gaussian 16:  ES64L-G16RevB.01 20-Dec-2017

 ----------------------
 # B3LYP/6-311G* NOSYMM
 ----------------------

 --------------------
 From 6_6-CNB_opt.out
 --------------------
 Symbolic Z-matrix:
 Charge =  0 Multiplicity = 1

                          Input orientation:
 ---------------------------------------------------------------------
 Center     Atomic      Atomic             Coordinates (Angstroms)
 Number     Number       Type             X           Y           Z
 ---------------------------------------------------------------------
      1          6           0        3.871266   -1.513330   -1.232128
      2          6           0        4.082981   -0.849326    0.018522
      3          6           0        4.171731    0.561094   -2.460435
      4          6           0        4.133581   -0.794225   -2.460423
      5          6           0        3.950413    1.293863   -1.232145
      6          6           0        4.124453    0.618981    0.018511
      7          6           0        3.946607    1.381726    1.181849
      8          6           0        3.318055    2.544702   -1.260298
      9          6           0        2.777616    3.111570   -0.096942
     10          6           0        3.246848    2.596178    1.153700
     11          6           0        2.755119    3.182838    2.381988
     12          6           0        1.600262    3.893243    2.381975
     13          6           0        1.526464    3.881197   -0.096955
     14          6           0        0.854944    4.067667    1.153696
     15          6           0       -0.544514    4.145119    1.181888
     16          6           0        0.776867    4.108138   -1.260291
     17          6           0       -0.624732    4.109166   -1.232100
     18          6           0       -1.305668    3.960505    0.018550
     19          6           0       -2.571437    3.332065   -2.460420
     20          6           0       -1.378634    3.976718   -2.460398
     21          6           0       -3.095325    2.773929   -1.232148
     22          6           0       -2.597903    3.262099    0.018522
     23          6           0       -3.169533    2.726621    1.181839
     24          6           0       -3.862302    1.600795   -1.260331
     25          6           0       -4.082983    0.849325   -0.096996
     26          6           0       -3.871270    1.513331    1.153652
     27          6           0       -4.133580    0.794227    2.381948
     28          6           0       -4.171726   -0.561093    2.381961
     29          6           0       -4.124451   -0.618981   -0.096984
     30          6           0       -3.950412   -1.293862    1.153672
     31          6           0       -3.318050   -2.544700    1.181823
     32          6           0       -3.946602   -1.381724   -1.260324
     33          6           0       -3.246845   -2.596176   -1.232176
     34          6           0       -2.777614   -3.111568    0.018467
     35          6           0       -1.600262   -3.893248   -2.460449
     36          6           0       -2.755118   -3.182839   -2.460463
     37          6           0       -0.854943   -4.067668   -1.232170
     38          6           0       -1.526464   -3.881198    0.018481
     39          6           0       -0.776867   -4.108144    1.181816
     40          6           0        0.544514   -4.145124   -1.260363
     41          6           0        1.305670   -3.960507   -0.097024
     42          6           0        0.624733   -4.109170    1.153624
     43          6           0        1.378633   -3.976719    2.381923
     44          6           0        2.571434   -3.332063    2.381946
     45          6           0        2.597902   -3.262098   -0.096995
     46          6           0        3.095324   -2.773929    1.153674
     47          6           0        3.862299   -1.600793    1.181856
     48          6           0        3.169530   -2.726617   -1.260314
     49          1           0        4.243744    1.115812   -3.392880
     50          1           0        4.174268   -1.352150   -3.392849
     51          1           0        4.153872    0.947758    2.155845
     52          1           0        3.068605    2.955882   -2.234295
     53          1           0        3.258669    2.939248    3.314435
     54          1           0        1.155777    4.232864    3.314415
     55          1           0       -1.025273    4.134671    2.155906
     56          1           0        1.256310    4.070679   -2.234293
     57          1           0       -3.087823    3.117058   -3.392873
     58          1           0       -0.915820    4.290923   -3.392832
     59          1           0       -2.897508    3.123166    2.155859
     60          1           0       -4.093716    1.179255   -2.234343
     61          1           0       -4.174266    1.352152    3.314375
     62          1           0       -4.243735   -1.115810    3.314408
     63          1           0       -3.068598   -2.955878    2.155820
     64          1           0       -4.153862   -0.947752   -2.234319
     65          1           0       -1.155778   -4.232872   -3.392887
     66          1           0       -3.258667   -2.939251   -3.392910
     67          1           0       -1.256309   -4.070691    2.155819
     68          1           0        1.025274   -4.134678   -2.234382
     69          1           0        0.915818   -4.290923    3.314357
     70          1           0        3.087816   -3.117052    3.314401
     71          1           0        4.093710   -1.179252    2.155868
     72          1           0        2.897499   -3.123161   -2.234332
 ---------------------------------------------------------------------

 SCF Done:  E(RB3LYP) =  -1843.89262382     A.U. after   13 cycles

 Alpha  occ. eigenvalues --  -10.19557 -10.19557 -10.19557 -10.19556 -10.19556
 Alpha  occ. eigenvalues --  -10.19555 -10.19526 -10.19526 -10.19526 -10.19525
 Alpha  occ. eigenvalues --  -10.19525 -10.19524 -10.19254 -10.19254 -10.19253
 Alpha  occ. eigenvalues --  -10.19253 -10.19253 -10.19253 -10.19252 -10.19252
 Alpha  occ. eigenvalues --  -10.19252 -10.19251 -10.19251 -10.19251 -10.18379
 Alpha  occ. eigenvalues --  -10.18379 -10.18379 -10.18379 -10.18379 -10.18378
 Alpha  occ. eigenvalues --  -10.18378 -10.18378 -10.18378 -10.18377 -10.18377
 Alpha  occ. eigenvalues --  -10.18377 -10.18322 -10.18322 -10.18322 -10.18322
 Alpha  occ. eigenvalues --  -10.18322 -10.18321 -10.18252 -10.18252 -10.18252
 Alpha  occ. eigenvalues --  -10.18252 -10.18252 -10.18252  -0.90481  -0.89867
 Alpha  occ. eigenvalues --   -0.89867  -0.88083  -0.88082  -0.85563  -0.85197
 Alpha  occ. eigenvalues --   -0.82695  -0.82695  -0.80607  -0.80607  -0.80288
 Alpha  occ. eigenvalues --   -0.78881  -0.78697  -0.78697  -0.77166  -0.75185
 Alpha  occ. eigenvalues --   -0.75185  -0.74317  -0.74317  -0.72257  -0.72257
 Alpha  occ. eigenvalues --   -0.70622  -0.70370  -0.67198  -0.65508  -0.64051
 Alpha  occ. eigenvalues --   -0.64051  -0.64021  -0.64021  -0.62556  -0.61420
 Alpha  occ. eigenvalues --   -0.61420  -0.59958  -0.59958  -0.57931  -0.57648
 Alpha  occ. eigenvalues --   -0.57648  -0.56471  -0.53995  -0.53995  -0.53860
 Alpha  occ. eigenvalues --   -0.53269  -0.51407  -0.51407  -0.50910  -0.50910
 Alpha  occ. eigenvalues --   -0.50246  -0.48340  -0.47451  -0.47451  -0.47147
 Alpha  occ. eigenvalues --   -0.47147  -0.46440  -0.46440  -0.45881  -0.44500
 Alpha  occ. eigenvalues --   -0.44069  -0.43799  -0.43799  -0.43730  -0.43436
 Alpha  occ. eigenvalues --   -0.43436  -0.43332  -0.43332  -0.43040  -0.42232
 Alpha  occ. eigenvalues --   -0.42232  -0.42055  -0.41871  -0.41587  -0.41586
 Alpha  occ. eigenvalues --   -0.41255  -0.40095  -0.40094  -0.39846  -0.39846
 Alpha  occ. eigenvalues --   -0.38909  -0.37306  -0.36519  -0.36518  -0.35686
 Alpha  occ. eigenvalues --   -0.35464  -0.35464  -0.35228  -0.34191  -0.34191
 Alpha  occ. eigenvalues --   -0.33669  -0.33669  -0.33284  -0.32595  -0.32595
 Alpha  occ. eigenvalues --   -0.32183  -0.31336  -0.30991  -0.30991  -0.28874
 Alpha  occ. eigenvalues --   -0.28695  -0.28694  -0.27478  -0.24977  -0.24977
 Alpha  occ. eigenvalues --   -0.22900  -0.22900  -0.21490  -0.21490  -0.19887
 Alpha  occ. eigenvalues --   -0.19116
 Alpha virt. eigenvalues --   -0.08526  -0.06935  -0.05492  -0.05492  -0.04957
 Alpha virt. eigenvalues --   -0.04956  -0.02255  -0.02255  -0.01521   0.00908
 Alpha virt. eigenvalues --    0.00909   0.02340   0.02964   0.03180   0.03180

 Mulliken charges:
               1
     1  C    0.050366
     2  C    0.023528
     3  C   -0.227971
     4  C   -0.227968
     5  C    0.050449
     6  C    0.023393
     7  C   -0.239672
     8  C   -0.239822
     9  C    0.023549
    10  C    0.050314
    11  C   -0.227961
    12  C   -0.227982
    13  C    0.023432
    14  C    0.050449
    15  C   -0.239759
    16  C   -0.239731
    17  C    0.050358
    18  C    0.023511
    19  C   -0.227987
    20  C   -0.227964
    21  C    0.050462
    22  C    0.023392
    23  C   -0.239726
    24  C   -0.239782
    25  C    0.023528
    26  C    0.050366
    27  C   -0.227967
    28  C   -0.227972
    29  C    0.023391
    30  C    0.050453
    31  C   -0.239823
    32  C   -0.239671
    33  C    0.050314
    34  C    0.023548
    35  C   -0.227981
    36  C   -0.227963
    37  C    0.050447
    38  C    0.023434
    39  C   -0.239732
    40  C   -0.239759
    41  C    0.023512
    42  C    0.050358
    43  C   -0.227963
    44  C   -0.227988
    45  C    0.023390
    46  C    0.050464
    47  C   -0.239781
    48  C   -0.239725
    49  H    0.194889
    50  H    0.194886
    51  H    0.198959
    52  H    0.198969
    53  H    0.194888
    54  H    0.194887
    55  H    0.198967
    56  H    0.198968
    57  H    0.194887
    58  H    0.194886
    59  H    0.198960
    60  H    0.198973
    61  H    0.194886
    62  H    0.194889
    63  H    0.198969
    64  H    0.198959
    65  H    0.194887
    66  H    0.194889
    67  H    0.198968
    68  H    0.198967
    69  H    0.194885
    70  H    0.194886
    71  H    0.198973
    72  H    0.198960
 Sum of Mulliken charges =  -0.00000

 Dipole moment (field-independent basis, Debye):
    X=             -0.0000    Y=              0.0000    Z=             -0.0000  Tot=              0.0000
 Quadrupole moment (field-independent basis, Debye-Ang):
   XX=           -289.3453   YY=           -289.3468   ZZ=           -233.7046
   XY=             -0.0011   XZ=              0.0006   YZ=              0.0005

 Normal termination of Gaussian 16 at Sun Apr 27 18:15:16 2025.
