 Gaussian 16, Revision B.01,
 Gaussian 16:  ES64L-G16RevB.01 20-Dec-2017

 -------------------------------------------
 # B3LYP/6-311G* Pop=(NBO6,Hirshfeld) NOSYMM
 -------------------------------------------

 -------------------------------
 From ../../6_6_arm3nCNB_opt.out
 -------------------------------
 Symbolic Z-matrix:
 Charge =  0 Multiplicity = 1

                          Input orientation:
 ---------------------------------------------------------------------
 Center     Atomic      Atomic             Coordinates (Angstroms)
 Number     Number       Type             X           Y           Z
 ---------------------------------------------------------------------
      1          6           0        3.861007   -1.472724   -1.811316
      2          6           0        4.091056   -0.809763   -0.547245
      3          6           0        4.149569    0.604545   -3.041339
      4          6           0        4.126532   -0.746881   -3.041276
      5          6           0        3.909078    1.339190   -1.811456
      6          6           0        4.116452    0.668879   -0.547301
      7          6           0        3.959474    1.420868    0.612883
      8          6           0        3.278303    2.574841   -1.840241
      9          6           0        2.745910    3.139325   -0.653802
     10          6           0        3.232012    2.636610    0.600268
     11          6           0        2.686274    3.188162    1.786662
     12          6           0        1.555747    3.907793   -0.666346
     13          6           0        0.809753    4.090659    0.493965
     14          6           0        1.472752    3.860695    1.757997
     15          6           0        0.746914    4.125868    2.987974
     16          6           0       -0.604542    4.148906    2.988047
     17          6           0       -0.668847    4.116029    0.494033
     18          6           0       -1.339172    3.908751    1.758159
     19          6           0       -2.574979    3.278139    1.786910
     20          6           0       -1.420847    3.959033   -0.666191
     21          6           0       -2.636646    3.231772   -0.653571
     22          6           0       -3.139501    2.745838    0.600514
     23          6           0       -3.908158    1.555732    0.613066
     24          6           0       -3.188313    2.686070   -1.839984
     25          6           0       -3.861033    1.472717   -1.811275
     26          6           0       -4.091068    0.809757   -0.547200
     27          6           0       -4.149608   -0.604554   -3.041292
     28          6           0       -4.126571    0.746873   -3.041231
     29          6           0       -3.909104   -1.339196   -1.811410
     30          6           0       -4.116464   -0.668884   -0.547254
     31          6           0       -3.959473   -1.420871    0.612929
     32          6           0       -3.278329   -2.574848   -1.840201
     33          6           0       -2.745923   -3.139330   -0.653767
     34          6           0       -3.232011   -2.636614    0.600308
     35          6           0       -2.686260   -3.188164    1.786696
     36          6           0       -1.555760   -3.907798   -0.666324
     37          6           0       -0.809753   -4.090663    0.493979
     38          6           0       -1.472738   -3.860697    1.758019
     39          6           0       -0.746886   -4.125868    2.987988
     40          6           0        0.604570   -4.148907    2.988046
     41          6           0        0.668846   -4.116033    0.494031
     42          6           0        1.339186   -3.908753    1.758149
     43          6           0        2.574994   -3.278141    1.786886
     44          6           0        1.420833   -3.959039   -0.666201
     45          6           0        2.636633   -3.231777   -0.653596
     46          6           0        3.139502   -2.745841    0.600483
     47          6           0        3.908159   -1.555736    0.613024
     48          6           0        3.188287   -2.686077   -1.840016
     49          1           0        4.231206    1.162408   -3.971047
     50          1           0        4.189113   -1.307303   -3.970922
     51          1           0        4.164280    0.978709    1.583485
     52          1           0        3.012066    3.009411   -2.801690
     53          1           0        3.111571    2.907354    2.748112
     54          1           0        1.120706    4.127467   -1.636909
     55          1           0        1.307289    4.188060    3.917675
     56          1           0       -1.162359    4.230149    3.917817
     57          1           0       -3.009524    3.011913    2.748375
     58          1           0       -0.978639    4.163776   -1.636785
     59          1           0       -4.127809    1.120707    1.583640
     60          1           0       -2.907477    3.111361   -2.801430
     61          1           0       -4.231256   -1.162417   -3.970998
     62          1           0       -4.189163    1.307293   -3.970877
     63          1           0       -4.164269   -0.978711    1.583533
     64          1           0       -3.012103   -3.009419   -2.801653
     65          1           0       -3.111546   -2.907355    2.748150
     66          1           0       -1.120729   -4.127474   -1.636891
     67          1           0       -1.307251   -4.188059    3.917695
     68          1           0        1.162397   -4.230148    3.917810
     69          1           0        3.009549   -3.011914    2.748346
     70          1           0        0.978616   -4.163782   -1.636791
     71          1           0        4.127821   -1.120709    1.583595
     72          1           0        2.907441   -3.111369   -2.801458
 ---------------------------------------------------------------------

 SCF Done:  E(RB3LYP) =  -1843.87506415     A.U. after   14 cycles

 Alpha  occ. eigenvalues --  -10.19739 -10.19739 -10.19739 -10.19739 -10.19710
 Alpha  occ. eigenvalues --  -10.19710 -10.19710 -10.19710 -10.19316 -10.19316
 Alpha  occ. eigenvalues --  -10.19316 -10.19316 -10.19277 -10.19277 -10.19277
 Alpha  occ. eigenvalues --  -10.19277 -10.19276 -10.19276 -10.19276 -10.19276
 Alpha  occ. eigenvalues --  -10.19276 -10.19275 -10.19275 -10.19275 -10.18506
 Alpha  occ. eigenvalues --  -10.18506 -10.18506 -10.18506 -10.18505 -10.18505
 Alpha  occ. eigenvalues --  -10.18505 -10.18505 -10.18405 -10.18405 -10.18405
 Alpha  occ. eigenvalues --  -10.18404 -10.18404 -10.18404 -10.18404 -10.18404
 Alpha  occ. eigenvalues --  -10.18318 -10.18318 -10.18317 -10.18317 -10.18246
 Alpha  occ. eigenvalues --  -10.18246 -10.18245 -10.18245  -0.90421  -0.89840
 Alpha  occ. eigenvalues --   -0.89840  -0.88195  -0.88106  -0.85555  -0.85555
 Alpha  occ. eigenvalues --   -0.82755  -0.82203  -0.80939  -0.80432  -0.80432
 Alpha  occ. eigenvalues --   -0.78922  -0.78922  -0.77817  -0.77791  -0.76283
 Alpha  occ. eigenvalues --   -0.75485  -0.74183  -0.74183  -0.72236  -0.72236
 Alpha  occ. eigenvalues --   -0.70281  -0.69981  -0.67500  -0.65998  -0.64853
 Alpha  occ. eigenvalues --   -0.64853  -0.62448  -0.62447  -0.62437  -0.62136
 Alpha  occ. eigenvalues --   -0.60613  -0.60613  -0.59864  -0.58848  -0.58572
 Alpha  occ. eigenvalues --   -0.57234  -0.57233  -0.54373  -0.53592  -0.53487
 Alpha  occ. eigenvalues --   -0.52849  -0.51571  -0.51571  -0.50595  -0.50595
 Alpha  occ. eigenvalues --   -0.49121  -0.49110  -0.49110  -0.47055  -0.46559
 Alpha  occ. eigenvalues --   -0.46314  -0.46288  -0.45836  -0.45835  -0.44950
 Alpha  occ. eigenvalues --   -0.44513  -0.44453  -0.44453  -0.44308  -0.43441
 Alpha  occ. eigenvalues --   -0.43312  -0.42967  -0.42966  -0.42891  -0.42337
 Alpha  occ. eigenvalues --   -0.42337  -0.42090  -0.42090  -0.41295  -0.41065
 Alpha  occ. eigenvalues --   -0.40922  -0.40922  -0.40480  -0.39977  -0.39906
 Alpha  occ. eigenvalues --   -0.38120  -0.38120  -0.36494  -0.36429  -0.35913
 Alpha  occ. eigenvalues --   -0.35803  -0.35803  -0.35176  -0.34243  -0.34242
 Alpha  occ. eigenvalues --   -0.33361  -0.33164  -0.33164  -0.32645  -0.32504
 Alpha  occ. eigenvalues --   -0.32143  -0.31919  -0.31243  -0.31243  -0.28953
 Alpha  occ. eigenvalues --   -0.28953  -0.27970  -0.27962  -0.25609  -0.25196
 Alpha  occ. eigenvalues --   -0.23363  -0.23363  -0.20793  -0.20792  -0.19317
 Alpha  occ. eigenvalues --   -0.18515
 Alpha virt. eigenvalues --   -0.09205  -0.07620  -0.06677  -0.06677  -0.03705
 Alpha virt. eigenvalues --   -0.03704  -0.02251  -0.01258  -0.01044   0.00625
 Alpha virt. eigenvalues --    0.00625   0.00719   0.02785   0.03223   0.03224

 Mulliken charges:
               1
     1  C    0.044617
     2  C    0.009110
     3  C   -0.219745
     4  C   -0.219765
     5  C    0.044618
     6  C    0.009072
     7  C   -0.226234
     8  C   -0.257559
     9  C    0.061394
    10  C    0.061344
    11  C   -0.257563
    12  C   -0.226284
    13  C    0.009098
    14  C    0.044663
    15  C   -0.219779
    16  C   -0.219757
    17  C    0.009052
    18  C    0.044668
    19  C   -0.257581
    20  C   -0.226232
    21  C    0.061319
    22  C    0.061419
    23  C   -0.226278
    24  C   -0.257542
    25  C    0.044617
    26  C    0.009110
    27  C   -0.219745
    28  C   -0.219766
    29  C    0.044617
    30  C    0.009073
    31  C   -0.226234
    32  C   -0.257558
    33  C    0.061394
    34  C    0.061344
    35  C   -0.257563
    36  C   -0.226283
    37  C    0.009099
    38  C    0.044663
    39  C   -0.219779
    40  C   -0.219757
    41  C    0.009053
    42  C    0.044667
    43  C   -0.257581
    44  C   -0.226232
    45  C    0.061319
    46  C    0.061419
    47  C   -0.226278
    48  C   -0.257542
    49  H    0.196432
    50  H    0.196432
    51  H    0.198468
    52  H    0.193589
    53  H    0.193588
    54  H    0.198476
    55  H    0.196422
    56  H    0.196422
    57  H    0.193589
    58  H    0.198469
    59  H    0.198473
    60  H    0.193586
    61  H    0.196432
    62  H    0.196432
    63  H    0.198468
    64  H    0.193589
    65  H    0.193588
    66  H    0.198476
    67  H    0.196423
    68  H    0.196422
    69  H    0.193589
    70  H    0.198469
    71  H    0.198472
    72  H    0.193586
 Sum of Mulliken charges =  -0.00000

 Dipole moment (field-independent basis, Debye):
    X=             -0.0000    Y=             -0.0000    Z=             -0.0003  Tot=              0.0003
 Quadrupole moment (field-independent basis, Debye-Ang):
   XX=           -289.8449   YY=           -289.8533   ZZ=           -234.1602
   XY=              0.0004   XZ=              0.0003   YZ=              0.0000

 Summary of Natural Population Analysis:

                                     Natural Population
             Natural    ---------------------------------------------
  Atom No    Charge        Core      Valence    Rydberg      Total
 --------------------------------------------------------------------
    C  1   -0.04888      1.99999     4.03388    0.01500     6.04888
    C  2   -0.02887      1.99999     4.01387    0.01501     6.02887
    C  3   -0.17722      1.99999     4.15981    0.01742     6.17722
    C  4   -0.17722      1.99999     4.15982    0.01742     6.17722
    C  5   -0.04889      1.99999     4.03389    0.01500     6.04889
    C  6   -0.02883      1.99999     4.01384    0.01501     6.02883
    C  7   -0.15009      1.99999     4.13428    0.01582     6.15009
    C  8   -0.15695      1.99999     4.13991    0.01705     6.15695
    C  9   -0.04202      1.99999     4.02769    0.01434     6.04202
    C 10   -0.04201      1.99999     4.02768    0.01434     6.04201
    C 11   -0.15694      1.99999     4.13990    0.01705     6.15694
    C 12   -0.15007      1.99999     4.13426    0.01582     6.15007
    C 13   -0.02887      1.99999     4.01387    0.01501     6.02887
    C 14   -0.04888      1.99999     4.03389    0.01500     6.04888
    C 15   -0.17722      1.99999     4.15981    0.01742     6.17722
    C 16   -0.17722      1.99999     4.15981    0.01742     6.17722
    C 17   -0.02884      1.99999     4.01384    0.01501     6.02884
    C 18   -0.04889      1.99999     4.03390    0.01500     6.04889
    C 19   -0.15693      1.99999     4.13989    0.01705     6.15693
    C 20   -0.15009      1.99999     4.13429    0.01582     6.15009
    C 21   -0.04200      1.99999     4.02767    0.01434     6.04200
    C 22   -0.04202      1.99999     4.02769    0.01434     6.04202
    C 23   -0.15006      1.99999     4.13426    0.01582     6.15006
    C 24   -0.15696      1.99999     4.13992    0.01705     6.15696
    C 25   -0.04888      1.99999     4.03388    0.01500     6.04888
    C 26   -0.02887      1.99999     4.01387    0.01501     6.02887
    C 27   -0.17722      1.99999     4.15981    0.01742     6.17722
    C 28   -0.17722      1.99999     4.15982    0.01742     6.17722
    C 29   -0.04889      1.99999     4.03389    0.01500     6.04889
    C 30   -0.02883      1.99999     4.01384    0.01501     6.02883
    C 31   -0.15009      1.99999     4.13428    0.01582     6.15009
    C 32   -0.15695      1.99999     4.13991    0.01705     6.15695
    C 33   -0.04202      1.99999     4.02769    0.01434     6.04202
    C 34   -0.04201      1.99999     4.02768    0.01434     6.04201
    C 35   -0.15694      1.99999     4.13990    0.01705     6.15694
    C 36   -0.15007      1.99999     4.13426    0.01582     6.15007
    C 37   -0.02887      1.99999     4.01387    0.01501     6.02887
    C 38   -0.04888      1.99999     4.03389    0.01500     6.04888
    C 39   -0.17722      1.99999     4.15981    0.01742     6.17722
    C 40   -0.17722      1.99999     4.15981    0.01742     6.17722
    C 41   -0.02884      1.99999     4.01385    0.01501     6.02884
    C 42   -0.04889      1.99999     4.03390    0.01500     6.04889
    C 43   -0.15693      1.99999     4.13989    0.01705     6.15693
    C 44   -0.15009      1.99999     4.13429    0.01582     6.15009
    C 45   -0.04200      1.99999     4.02767    0.01434     6.04200
    C 46   -0.04202      1.99999     4.02769    0.01434     6.04202
    C 47   -0.15006      1.99999     4.13426    0.01582     6.15006
    C 48   -0.15696      1.99999     4.13992    0.01705     6.15696
    H 49    0.20470      0.00000     0.79343    0.00187     0.79530
    H 50    0.20470      0.00000     0.79343    0.00187     0.79530
    H 51    0.19786      0.00000     0.79991    0.00223     0.80214
    H 52    0.20144      0.00000     0.79620    0.00236     0.79856
    H 53    0.20143      0.00000     0.79621    0.00236     0.79857
    H 54    0.19786      0.00000     0.79991    0.00223     0.80214
    H 55    0.20469      0.00000     0.79343    0.00187     0.79531
    H 56    0.20469      0.00000     0.79343    0.00187     0.79531
    H 57    0.20143      0.00000     0.79621    0.00236     0.79857
    H 58    0.19786      0.00000     0.79991    0.00223     0.80214
    H 59    0.19786      0.00000     0.79992    0.00223     0.80214
    H 60    0.20144      0.00000     0.79620    0.00236     0.79856
    H 61    0.20470      0.00000     0.79343    0.00187     0.79530
    H 62    0.20470      0.00000     0.79343    0.00187     0.79530
    H 63    0.19786      0.00000     0.79991    0.00223     0.80214
    H 64    0.20144      0.00000     0.79620    0.00236     0.79856
    H 65    0.20143      0.00000     0.79621    0.00236     0.79857
    H 66    0.19786      0.00000     0.79991    0.00223     0.80214
    H 67    0.20469      0.00000     0.79343    0.00187     0.79531
    H 68    0.20469      0.00000     0.79343    0.00187     0.79531
    H 69    0.20143      0.00000     0.79621    0.00236     0.79857
    H 70    0.19786      0.00000     0.79991    0.00223     0.80214
    H 71    0.19786      0.00000     0.79992    0.00223     0.80214
    H 72    0.20144      0.00000     0.79620    0.00236     0.79856
 ====================================================================
 * Total *  0.00000     95.99943   215.19179    0.80878   312.00000

 Normal termination of Gaussian 16 at Wed May 21 22:39:34 2025.
