 Gaussian 16, Revision B.01,
 Gaussian 16:  ES64L-G16RevB.01 20-Dec-2017

 -------------------------------------------
 # B3LYP/6-311G* Pop=(NBO6,Hirshfeld) NOSYMM
 -------------------------------------------

 ------------------------------
 From ../..//6_6_armCNB_opt.out
 ------------------------------
 Symbolic Z-matrix:
 Charge =  0 Multiplicity = 1

                          Input orientation:
 ---------------------------------------------------------------------
 Center     Atomic      Atomic             Coordinates (Angstroms)
 Number     Number       Type             X           Y           Z
 ---------------------------------------------------------------------
      1          6           0       -0.869190    3.088708    3.255606
      2          6           0        1.884911    3.491567    2.269504
      3          6           0        0.743973    3.848695    1.480218
      4          6           0       -0.169699    4.517827   -0.674547
      5          6           0       -1.444358    4.331375   -0.218157
      6          6           0       -0.607729    3.650974    1.964193
      7          6           0        0.953728    4.078934    0.098457
      8          6           0       -1.682202    3.693361    1.042248
      9          6           0        4.536851   -0.555228    0.057281
     10          6           0        4.486126    0.752828    0.450000
     11          6           0        3.254716   -3.204271   -0.184517
     12          6           0        2.176191   -4.019771    0.014368
     13          6           0       -0.577909   -4.422630    1.000470
     14          6           0       -1.707159   -3.930074    1.592074
     15          6           0       -3.179124   -1.683891    2.819974
     16          6           0       -3.229849   -0.375835    3.212693
     17          6           0       -1.947715    2.273208    3.454491
     18          6           0        3.014160    2.999011    1.677899
     19          6           0        2.270221    3.453584   -1.952801
     20          6           0        3.560040    1.406802   -1.704120
     21          6           0        3.801639    1.727697   -0.345838
     22          6           0        2.151232    3.556608   -0.528905
     23          6           0        2.951480    2.414000   -2.521101
     24          6           0        3.079204    2.830115    0.256810
     25          6           0       -2.838063    1.964561    2.375479
     26          6           0       -3.774680    2.569359    0.211567
     27          6           0       -4.368080    1.343323    0.099657
     28          6           0       -3.467330    0.664421    2.256805
     29          6           0       -2.825914    2.828570    1.253154
     30          6           0       -4.053036    0.293191    1.021731
     31          6           0       -3.362433   -2.040572    1.444682
     32          6           0       -4.258481   -1.482936   -0.748873
     33          6           0       -3.577223   -2.522520   -1.317173
     34          6           0       -2.639998   -3.142990    0.842034
     35          6           0       -3.999246   -1.093926    0.605276
     36          6           0       -2.590437   -3.243733   -0.569939
     37          6           0       -0.304767   -4.161570   -0.381374
     38          6           0       -1.137302   -3.586764   -2.595427
     39          6           0        0.137357   -3.400312   -3.051817
     40          6           0        1.046934   -3.963849   -0.865349
     41          6           0       -1.392934   -3.766059   -1.197301
     42          6           0        1.242996   -3.380486   -2.141092
     43          6           0        2.467678   -1.638296   -3.481541
     44          6           0        3.613831    0.019684   -2.120575
     45          6           0        3.906535   -0.977296   -1.157961
     46          6           0        2.386709   -2.515695   -2.351998
     47          6           0        3.061079   -0.412260   -3.369631
     48          6           0        3.277268   -2.277436   -1.276635
     49          1           0       -0.147511    3.210587    4.056658
     50          1           0        1.819024    3.498244    3.352543
     51          1           0       -0.021650    4.894820   -1.681184
     52          1           0       -2.276861    4.564936   -0.873708
     53          1           0        4.957754   -1.291381    0.734244
     54          1           0        4.868008    1.022919    1.429069
     55          1           0        4.042260   -3.182900    0.561591
     56          1           0        2.134062   -4.625738    0.913473
     57          1           0        0.167527   -4.913395    1.617588
     58          1           0       -1.830417   -4.041932    2.664294
     59          1           0       -2.881458   -2.438070    3.541062
     60          1           0       -2.971203   -0.123770    4.235887
     61          1           0       -2.055709    1.767750    4.408540
     62          1           0        3.816967    2.626782    2.305837
     63          1           0        2.925877    2.295607   -3.599380
     64          1           0        1.720549    4.134908   -2.593907
     65          1           0       -3.940802    3.306788   -0.566869
     66          1           0       -4.990686    1.137603   -0.764867
     67          1           0       -4.912428   -0.880456   -1.370751
     68          1           0       -3.707100   -2.719757   -2.376224
     69          1           0       -1.964901   -3.479669   -3.288947
     70          1           0        0.290311   -3.149785   -4.096423
     71          1           0        3.004135    0.277547   -4.205264
     72          1           0        1.954251   -1.891637   -4.403262
 ---------------------------------------------------------------------

 SCF Done:  E(RB3LYP) =  -1843.89849861     A.U. after   13 cycles

 Alpha  occ. eigenvalues --  -10.19326 -10.19326 -10.19326 -10.19323 -10.19323
 Alpha  occ. eigenvalues --  -10.19317 -10.19317 -10.19310 -10.19310 -10.19301
 Alpha  occ. eigenvalues --  -10.19301 -10.19295 -10.19283 -10.19276 -10.19276
 Alpha  occ. eigenvalues --  -10.19267 -10.19267 -10.19258 -10.19258 -10.19251
 Alpha  occ. eigenvalues --  -10.19251 -10.19248 -10.19248 -10.19246 -10.18188
 Alpha  occ. eigenvalues --  -10.18188 -10.18188 -10.18188 -10.18187 -10.18187
 Alpha  occ. eigenvalues --  -10.18187 -10.18187 -10.18187 -10.18187 -10.18186
 Alpha  occ. eigenvalues --  -10.18186 -10.18123 -10.18123 -10.18123 -10.18123
 Alpha  occ. eigenvalues --  -10.18123 -10.18123 -10.18123 -10.18123 -10.18123
 Alpha  occ. eigenvalues --  -10.18122 -10.18122 -10.18122  -0.90488  -0.89836
 Alpha  occ. eigenvalues --   -0.89836  -0.87907  -0.87907  -0.84815  -0.84815
 Alpha  occ. eigenvalues --   -0.82129  -0.81630  -0.81630  -0.81312  -0.81312
 Alpha  occ. eigenvalues --   -0.78641  -0.78641  -0.76812  -0.76812  -0.74865
 Alpha  occ. eigenvalues --   -0.74865  -0.73941  -0.73941  -0.72021  -0.72021
 Alpha  occ. eigenvalues --   -0.71619  -0.70715  -0.66184  -0.64433  -0.64433
 Alpha  occ. eigenvalues --   -0.63979  -0.63979  -0.62594  -0.62559  -0.62559
 Alpha  occ. eigenvalues --   -0.61682  -0.61682  -0.59665  -0.59665  -0.55508
 Alpha  occ. eigenvalues --   -0.55508  -0.54951  -0.54951  -0.54236  -0.53152
 Alpha  occ. eigenvalues --   -0.51967  -0.51561  -0.51561  -0.50645  -0.50645
 Alpha  occ. eigenvalues --   -0.50484  -0.50484  -0.48868  -0.48868  -0.47211
 Alpha  occ. eigenvalues --   -0.47211  -0.45415  -0.45415  -0.45168  -0.45036
 Alpha  occ. eigenvalues --   -0.45036  -0.44101  -0.44101  -0.43323  -0.43114
 Alpha  occ. eigenvalues --   -0.42899  -0.42898  -0.42222  -0.42222  -0.42086
 Alpha  occ. eigenvalues --   -0.42086  -0.41902  -0.41902  -0.40884  -0.40884
 Alpha  occ. eigenvalues --   -0.40834  -0.40834  -0.40330  -0.39987  -0.39987
 Alpha  occ. eigenvalues --   -0.38789  -0.38789  -0.36218  -0.36218  -0.35582
 Alpha  occ. eigenvalues --   -0.35582  -0.34546  -0.34546  -0.33919  -0.33919
 Alpha  occ. eigenvalues --   -0.33166  -0.33060  -0.32700  -0.32700  -0.32330
 Alpha  occ. eigenvalues --   -0.32330  -0.31497  -0.30759  -0.30759  -0.28835
 Alpha  occ. eigenvalues --   -0.28835  -0.27067  -0.27067  -0.23972  -0.23971
 Alpha  occ. eigenvalues --   -0.23356  -0.23356  -0.21664  -0.21664  -0.20873
 Alpha  occ. eigenvalues --   -0.19360
 Alpha virt. eigenvalues --   -0.07721  -0.05227  -0.05102  -0.05102  -0.04088
 Alpha virt. eigenvalues --   -0.04088  -0.03612  -0.03612  -0.01628  -0.01628
 Alpha virt. eigenvalues --    0.01286   0.01286   0.03677   0.03677   0.03698

 Mulliken charges:
               1
     1  C   -0.220028
     2  C   -0.220041
     3  C    0.024999
     4  C   -0.220031
     5  C   -0.220084
     6  C    0.024945
     7  C    0.024982
     8  C    0.025059
     9  C   -0.220045
    10  C   -0.220064
    11  C   -0.220061
    12  C   -0.220035
    13  C   -0.220068
    14  C   -0.220036
    15  C   -0.220076
    16  C   -0.220031
    17  C   -0.220077
    18  C   -0.220061
    19  C   -0.220042
    20  C    0.024979
    21  C    0.025022
    22  C    0.024982
    23  C   -0.220062
    24  C    0.025014
    25  C    0.025012
    26  C   -0.220045
    27  C   -0.220041
    28  C    0.024986
    29  C    0.024973
    30  C    0.025016
    31  C    0.025042
    32  C   -0.220046
    33  C   -0.220047
    34  C    0.024992
    35  C    0.024951
    36  C    0.024994
    37  C    0.024989
    38  C   -0.220040
    39  C   -0.220083
    40  C    0.024983
    41  C    0.024999
    42  C    0.025038
    43  C   -0.220062
    44  C    0.024988
    45  C    0.025012
    46  C    0.025006
    47  C   -0.220043
    48  C    0.024997
    49  H    0.195055
    50  H    0.195054
    51  H    0.195057
    52  H    0.195051
    53  H    0.195057
    54  H    0.195049
    55  H    0.195051
    56  H    0.195054
    57  H    0.195055
    58  H    0.195053
    59  H    0.195052
    60  H    0.195055
    61  H    0.195052
    62  H    0.195052
    63  H    0.195053
    64  H    0.195055
    65  H    0.195052
    66  H    0.195054
    67  H    0.195057
    68  H    0.195058
    69  H    0.195051
    70  H    0.195049
    71  H    0.195056
    72  H    0.195054
 Sum of Mulliken charges =  -0.00000

 Dipole moment (field-independent basis, Debye):
    X=             -0.0001    Y=              0.0001    Z=              0.0001  Tot=              0.0001
 Quadrupole moment (field-independent basis, Debye-Ang):
   XX=           -279.6773   YY=           -283.1186   ZZ=           -242.9269
   XY=             -4.9776   XZ=             17.4817   YZ=            -12.4536

 Summary of Natural Population Analysis:

                                     Natural Population
             Natural    ---------------------------------------------
  Atom No    Charge        Core      Valence    Rydberg      Total
 --------------------------------------------------------------------
    C  1   -0.17598      1.99999     4.15985    0.01614     6.17598
    C  2   -0.17598      1.99999     4.15985    0.01614     6.17598
    C  3   -0.02608      1.99999     4.01123    0.01486     6.02608
    C  4   -0.17598      1.99999     4.15985    0.01614     6.17598
    C  5   -0.17598      1.99999     4.15985    0.01614     6.17598
    C  6   -0.02608      1.99999     4.01123    0.01486     6.02608
    C  7   -0.02608      1.99999     4.01123    0.01486     6.02608
    C  8   -0.02608      1.99999     4.01123    0.01486     6.02608
    C  9   -0.17598      1.99999     4.15985    0.01614     6.17598
    C 10   -0.17599      1.99999     4.15986    0.01614     6.17599
    C 11   -0.17598      1.99999     4.15985    0.01614     6.17598
    C 12   -0.17598      1.99999     4.15985    0.01614     6.17598
    C 13   -0.17598      1.99999     4.15985    0.01614     6.17598
    C 14   -0.17598      1.99999     4.15985    0.01614     6.17598
    C 15   -0.17599      1.99999     4.15985    0.01614     6.17599
    C 16   -0.17598      1.99999     4.15985    0.01614     6.17598
    C 17   -0.17598      1.99999     4.15985    0.01614     6.17598
    C 18   -0.17598      1.99999     4.15985    0.01614     6.17598
    C 19   -0.17598      1.99999     4.15985    0.01614     6.17598
    C 20   -0.02608      1.99999     4.01123    0.01486     6.02608
    C 21   -0.02608      1.99999     4.01123    0.01486     6.02608
    C 22   -0.02608      1.99999     4.01123    0.01486     6.02608
    C 23   -0.17599      1.99999     4.15986    0.01614     6.17599
    C 24   -0.02608      1.99999     4.01123    0.01486     6.02608
    C 25   -0.02608      1.99999     4.01123    0.01486     6.02608
    C 26   -0.17598      1.99999     4.15985    0.01614     6.17598
    C 27   -0.17598      1.99999     4.15985    0.01614     6.17598
    C 28   -0.02608      1.99999     4.01123    0.01486     6.02608
    C 29   -0.02608      1.99999     4.01123    0.01486     6.02608
    C 30   -0.02608      1.99999     4.01123    0.01486     6.02608
    C 31   -0.02608      1.99999     4.01123    0.01486     6.02608
    C 32   -0.17598      1.99999     4.15985    0.01614     6.17598
    C 33   -0.17598      1.99999     4.15985    0.01614     6.17598
    C 34   -0.02608      1.99999     4.01123    0.01486     6.02608
    C 35   -0.02608      1.99999     4.01123    0.01486     6.02608
    C 36   -0.02608      1.99999     4.01123    0.01486     6.02608
    C 37   -0.02608      1.99999     4.01123    0.01486     6.02608
    C 38   -0.17598      1.99999     4.15985    0.01614     6.17598
    C 39   -0.17599      1.99999     4.15986    0.01614     6.17599
    C 40   -0.02608      1.99999     4.01123    0.01486     6.02608
    C 41   -0.02608      1.99999     4.01123    0.01486     6.02608
    C 42   -0.02608      1.99999     4.01123    0.01486     6.02608
    C 43   -0.17598      1.99999     4.15985    0.01614     6.17598
    C 44   -0.02608      1.99999     4.01123    0.01486     6.02608
    C 45   -0.02608      1.99999     4.01123    0.01486     6.02608
    C 46   -0.02608      1.99999     4.01123    0.01486     6.02608
    C 47   -0.17598      1.99999     4.15985    0.01614     6.17598
    C 48   -0.02608      1.99999     4.01123    0.01486     6.02608
    H 49    0.20206      0.00000     0.79620    0.00173     0.79794
    H 50    0.20206      0.00000     0.79621    0.00173     0.79794
    H 51    0.20206      0.00000     0.79621    0.00173     0.79794
    H 52    0.20206      0.00000     0.79620    0.00173     0.79794
    H 53    0.20206      0.00000     0.79621    0.00173     0.79794
    H 54    0.20206      0.00000     0.79620    0.00173     0.79794
    H 55    0.20206      0.00000     0.79621    0.00173     0.79794
    H 56    0.20206      0.00000     0.79621    0.00173     0.79794
    H 57    0.20206      0.00000     0.79621    0.00173     0.79794
    H 58    0.20206      0.00000     0.79621    0.00173     0.79794
    H 59    0.20206      0.00000     0.79620    0.00173     0.79794
    H 60    0.20206      0.00000     0.79621    0.00173     0.79794
    H 61    0.20206      0.00000     0.79621    0.00173     0.79794
    H 62    0.20206      0.00000     0.79620    0.00173     0.79794
    H 63    0.20206      0.00000     0.79620    0.00173     0.79794
    H 64    0.20206      0.00000     0.79620    0.00173     0.79794
    H 65    0.20206      0.00000     0.79621    0.00173     0.79794
    H 66    0.20206      0.00000     0.79621    0.00173     0.79794
    H 67    0.20206      0.00000     0.79621    0.00173     0.79794
    H 68    0.20206      0.00000     0.79620    0.00173     0.79794
    H 69    0.20206      0.00000     0.79621    0.00173     0.79794
    H 70    0.20206      0.00000     0.79620    0.00173     0.79794
    H 71    0.20206      0.00000     0.79621    0.00173     0.79794
    H 72    0.20206      0.00000     0.79620    0.00173     0.79794
 ====================================================================
 * Total *  0.00000     95.99943   215.21484    0.78573   312.00000

 Normal termination of Gaussian 16 at Sat May 17 20:24:13 2025.
