 Gaussian 16, Revision B.01,
 Gaussian 16:  ES64L-G16RevB.01 20-Dec-2017

 ----------------------
 # B3LYP/6-311G* NOSYMM
 ----------------------

 ----------------------
 From 10_10-CNB_opt.out
 ----------------------
 Symbolic Z-matrix:
 Charge =  0 Multiplicity = 1

                          Input orientation:
 ---------------------------------------------------------------------
 Center     Atomic      Atomic             Coordinates (Angstroms)
 Number     Number       Type             X           Y           Z
 ---------------------------------------------------------------------
      1          6           0        6.736854   -1.517406   -1.221891
      2          6           0        6.860661   -0.832219    0.029979
      3          6           0        6.918147    0.577789   -2.450473
      4          6           0        6.898521   -0.778727   -2.450487
      5          6           0        6.778002    1.320840   -1.221875
      6          6           0        6.881945    0.632354    0.030000
      7          6           0        6.778266    1.400234    1.195498
      8          6           0        6.387225    2.666201   -1.244754
      9          6           0        6.039344    3.358636   -0.079271
     10          6           0        6.341790    2.731466    1.172617
     11          6           0        6.037926    3.423807    2.401250
     12          6           0        5.256262    4.532630    2.401222
     13          6           0        5.195416    4.555811   -0.079307
     14          6           0        4.706391    5.051505    1.172570
     15          6           0        3.599549    5.910319    1.195422
     16          6           0        4.660251    5.116178   -1.244805
     17          6           0        3.524683    5.936663   -1.221947
     18          6           0        2.911323    6.266315    0.029912
     19          6           0        1.587858    6.755984   -2.450564
     20          6           0        2.871955    6.318262   -2.450583
     21          6           0        0.837984    6.852636   -1.221929
     22          6           0        1.524964    6.739044    0.029937
     23          6           0        0.762680    6.877923    1.195455
     24          6           0       -0.562274    6.896894   -1.244756
     25          6           0       -1.328270    6.780489   -0.079210
     26          6           0       -0.638280    6.874303    1.172629
     27          6           0       -1.390626    6.799588    2.401280
     28          6           0       -2.686842    6.399160    2.401342
     29          6           0       -2.727786    6.348267   -0.079143
     30          6           0       -3.350395    6.036554    1.172753
     31          6           0       -4.509314    5.249405    1.195658
     32          6           0       -3.426193    6.012547   -1.244608
     33          6           0       -4.557540    5.186287   -1.221710
     34          6           0       -5.060678    4.704942    0.030164
     35          6           0       -5.935779    3.597984   -2.450407
     36          6           0       -5.122301    4.683679   -2.450372
     37          6           0       -6.259614    2.914737   -1.221785
     38          6           0       -5.939129    3.532857    0.030128
     39          6           0       -6.307149    2.850857    1.195577
     40          6           0       -6.734563    1.596758   -1.244703
     41          6           0       -6.860661    0.832221   -0.079212
     42          6           0       -6.736858    1.517409    1.172659
     43          6           0       -6.898519    0.778730    2.401254
     44          6           0       -6.918139   -0.577787    2.401241
     45          6           0       -6.881939   -0.632352   -0.079232
     46          6           0       -6.777996   -1.320838    1.172644
     47          6           0       -6.387219   -2.666198    1.195522
     48          6           0       -6.778256   -1.400231   -1.244729
     49          6           0       -6.341788   -2.731466   -1.221849
     50          6           0       -6.039345   -3.358636    0.030039
     51          6           0       -5.256270   -4.532635   -2.450454
     52          6           0       -6.037928   -3.423809   -2.450483
     53          6           0       -4.706398   -5.051509   -1.221800
     54          6           0       -5.195423   -4.555816    0.030075
     55          6           0       -4.660261   -5.116186    1.195573
     56          6           0       -3.599556   -5.910323   -1.244654
     57          6           0       -2.911325   -6.266314   -0.079145
     58          6           0       -3.524688   -5.936665    1.172715
     59          6           0       -2.871958   -6.318260    2.401350
     60          6           0       -1.587858   -6.755976    2.401331
     61          6           0       -1.524965   -6.739036   -0.079170
     62          6           0       -0.837985   -6.852628    1.172698
     63          6           0        0.562274   -6.896886    1.195523
     64          6           0       -0.762681   -6.877910   -1.244688
     65          6           0        0.638280   -6.874298   -1.221862
     66          6           0        1.328269   -6.780489    0.029975
     67          6           0        2.686843   -6.399164   -2.450576
     68          6           0        1.390627   -6.799586   -2.450514
     69          6           0        3.350396   -6.036557   -1.221986
     70          6           0        2.727788   -6.348272    0.029909
     71          6           0        3.426199   -6.012558    1.195374
     72          6           0        4.509315   -5.249408   -1.244892
     73          6           0        5.060676   -4.704941   -0.079399
     74          6           0        4.557541   -5.186291    1.172476
     75          6           0        5.122298   -4.683681    2.401137
     76          6           0        5.935771   -3.597981    2.401173
     77          6           0        5.939121   -3.532853   -0.079362
     78          6           0        6.259606   -2.914734    1.172554
     79          6           0        6.734555   -1.596755    1.195470
     80          6           0        6.307137   -2.850851   -1.244810
     81          1           0        6.959485    1.130622   -3.385884
     82          1           0        6.923870   -1.332508   -3.385905
     83          1           0        6.909623    0.935111    2.167969
     84          1           0        6.233436    3.124367   -2.217234
     85          1           0        6.383780    2.990570    3.336673
     86          1           0        4.964411    5.003982    3.336624
     87          1           0        3.205677    6.190408    2.167891
     88          1           0        5.039987    4.817217   -2.217279
     89          1           0        1.074725    6.965810   -3.385976
     90          1           0        3.406400    6.171033   -3.386006
     91          1           0        1.245664    6.859258    2.167908
     92          1           0       -1.045601    6.891969   -2.217202
     93          1           0       -0.871652    6.994619    3.336669
     94          1           0       -3.225303    6.267516    3.336787
     95          1           0       -4.897457    4.961500    2.168150
     96          1           0       -3.024501    6.281224   -2.217100
     97          1           0       -6.294041    3.174953   -3.385832
     98          1           0       -4.816954    5.146425   -3.385760
     99          1           0       -6.140259    3.304376    2.168076
    100          1           0       -6.879220    1.135632   -2.217185
    101          1           0       -6.923866    1.332510    3.336674
    102          1           0       -6.959469   -1.130616    3.336654
    103          1           0       -6.233420   -3.124361    2.168002
    104          1           0       -6.909597   -0.935105   -2.217200
    105          1           0       -4.964423   -5.003994   -3.385854
    106          1           0       -6.383785   -2.990571   -3.385904
    107          1           0       -5.040008   -4.817239    2.168047
    108          1           0       -3.205689   -6.190421   -2.217123
    109          1           0       -3.406401   -6.171031    3.336775
    110          1           0       -1.074724   -6.965793    3.336745
    111          1           0        1.045601   -6.891950    2.167968
    112          1           0       -1.245664   -6.859228   -2.217141
    113          1           0        3.225308   -6.267524   -3.386019
    114          1           0        0.871650   -6.994619   -3.385903
    115          1           0        3.024516   -6.281252    2.167866
    116          1           0        4.897463   -4.961510   -2.217384
    117          1           0        4.816953   -5.146426    3.336526
    118          1           0        6.294025   -3.174949    3.336601
    119          1           0        6.879203   -1.135626    2.167953
    120          1           0        6.140233   -3.304363   -2.217310
 ---------------------------------------------------------------------

 SCF Done:  E(RB3LYP) =  -3073.34991603     A.U. after   16 cycles

 Alpha  occ. eigenvalues --  -10.19493 -10.19493 -10.19493 -10.19493 -10.19492
 Alpha  occ. eigenvalues --  -10.19492 -10.19492 -10.19491 -10.19491 -10.19491
 Alpha  occ. eigenvalues --  -10.19461 -10.19461 -10.19460 -10.19460 -10.19460
 Alpha  occ. eigenvalues --  -10.19460 -10.19460 -10.19459 -10.19459 -10.19459
 Alpha  occ. eigenvalues --  -10.19214 -10.19214 -10.19214 -10.19214 -10.19214
 Alpha  occ. eigenvalues --  -10.19214 -10.19214 -10.19213 -10.19213 -10.19213
 Alpha  occ. eigenvalues --  -10.19213 -10.19213 -10.19213 -10.19213 -10.19212
 Alpha  occ. eigenvalues --  -10.19212 -10.19212 -10.19212 -10.19212 -10.19212
 Alpha  occ. eigenvalues --  -10.18304 -10.18304 -10.18304 -10.18304 -10.18304
 Alpha  occ. eigenvalues --  -10.18304 -10.18304 -10.18304 -10.18304 -10.18304
 Alpha  occ. eigenvalues --  -10.18303 -10.18303 -10.18303 -10.18303 -10.18302
 Alpha  occ. eigenvalues --  -10.18302 -10.18302 -10.18302 -10.18302 -10.18302
 Alpha  occ. eigenvalues --  -10.18289 -10.18289 -10.18289 -10.18289 -10.18289
 Alpha  occ. eigenvalues --  -10.18289 -10.18288 -10.18288 -10.18288 -10.18288
 Alpha  occ. eigenvalues --  -10.18220 -10.18220 -10.18219 -10.18219 -10.18219
 Alpha  occ. eigenvalues --  -10.18219 -10.18219 -10.18219 -10.18219 -10.18219
 Alpha  occ. eigenvalues --   -0.90340  -0.90127  -0.90127  -0.89494  -0.89494
 Alpha  occ. eigenvalues --   -0.88459  -0.88459  -0.87064  -0.87064  -0.85554
 Alpha  occ. eigenvalues --   -0.85234  -0.83693  -0.83693  -0.82271  -0.82271
 Alpha  occ. eigenvalues --   -0.81038  -0.81038  -0.80341  -0.79803  -0.79803
 Alpha  occ. eigenvalues --   -0.79787  -0.79786  -0.78892  -0.78143  -0.78143
 Alpha  occ. eigenvalues --   -0.77289  -0.76261  -0.76261  -0.75678  -0.75678
 Alpha  occ. eigenvalues --   -0.74473  -0.74473  -0.72859  -0.72859  -0.72571
 Alpha  occ. eigenvalues --   -0.72571  -0.71361  -0.71361  -0.70645  -0.70420
 Alpha  occ. eigenvalues --   -0.67426  -0.65703  -0.65506  -0.65506  -0.65010
 Alpha  occ. eigenvalues --   -0.65010  -0.63762  -0.63762  -0.63684  -0.63684
 Alpha  occ. eigenvalues --   -0.62754  -0.62252  -0.62252  -0.61355  -0.61355
 Alpha  occ. eigenvalues --   -0.60557  -0.60557  -0.58949  -0.58949  -0.57937
 Alpha  occ. eigenvalues --   -0.57479  -0.57479  -0.57426  -0.57426  -0.56514
 Alpha  occ. eigenvalues --   -0.54984  -0.54984  -0.53999  -0.53492  -0.52811
 Alpha  occ. eigenvalues --   -0.52811  -0.52754  -0.52754  -0.51429  -0.51429
 Alpha  occ. eigenvalues --   -0.50841  -0.50841  -0.50580  -0.50580  -0.50292
 Alpha  occ. eigenvalues --   -0.48131  -0.48011  -0.48011  -0.47755  -0.47755
 Alpha  occ. eigenvalues --   -0.47572  -0.47571  -0.46679  -0.46679  -0.45969
 Alpha  occ. eigenvalues --   -0.45969  -0.45856  -0.45442  -0.45442  -0.44571
 Alpha  occ. eigenvalues --   -0.44176  -0.44175  -0.44142  -0.43929  -0.43929
 Alpha  occ. eigenvalues --   -0.43702  -0.43702  -0.43601  -0.43241  -0.43241
 Alpha  occ. eigenvalues --   -0.43200  -0.43200  -0.42651  -0.42526  -0.42526
 Alpha  occ. eigenvalues --   -0.42311  -0.42311  -0.41801  -0.41751  -0.41650
 Alpha  occ. eigenvalues --   -0.41649  -0.41088  -0.41088  -0.41075  -0.41075
 Alpha  occ. eigenvalues --   -0.41000  -0.40137  -0.40137  -0.40122  -0.40121
 Alpha  occ. eigenvalues --   -0.40113  -0.40113  -0.39479  -0.39479  -0.39029
 Alpha  occ. eigenvalues --   -0.37584  -0.37583  -0.37289  -0.36643  -0.36643
 Alpha  occ. eigenvalues --   -0.36455  -0.36455  -0.36273  -0.35736  -0.35052
 Alpha  occ. eigenvalues --   -0.35052  -0.34905  -0.34905  -0.34287  -0.34287
 Alpha  occ. eigenvalues --   -0.33888  -0.33888  -0.33803  -0.33803  -0.33558
 Alpha  occ. eigenvalues --   -0.32839  -0.32838  -0.32703  -0.32703  -0.32424
 Alpha  occ. eigenvalues --   -0.31730  -0.31729  -0.31653  -0.30768  -0.30768
 Alpha  occ. eigenvalues --   -0.30312  -0.30312  -0.29046  -0.28310  -0.28310
 Alpha  occ. eigenvalues --   -0.27946  -0.26481  -0.26481  -0.25388  -0.25387
 Alpha  occ. eigenvalues --   -0.23850  -0.23850  -0.22133  -0.22132  -0.21529
 Alpha  occ. eigenvalues --   -0.21529  -0.20433  -0.20433  -0.19854  -0.19708
 Alpha virt. eigenvalues --   -0.08322  -0.07562  -0.06859  -0.06858  -0.06615
 Alpha virt. eigenvalues --   -0.06615  -0.05286  -0.05286  -0.04173  -0.04173
 Alpha virt. eigenvalues --   -0.01936  -0.01936  -0.01430  -0.01430  -0.00819

 Mulliken charges:
               1
     1  C    0.059822
     2  C    0.008672
     3  C   -0.227529
     4  C   -0.227547
     5  C    0.059790
     6  C    0.008709
     7  C   -0.236489
     8  C   -0.236441
     9  C    0.008643
    10  C    0.059846
    11  C   -0.227532
    12  C   -0.227538
    13  C    0.008662
    14  C    0.059830
    15  C   -0.236451
    16  C   -0.236436
    17  C    0.059848
    18  C    0.008602
    19  C   -0.227524
    20  C   -0.227540
    21  C    0.059826
    22  C    0.008666
    23  C   -0.236453
    24  C   -0.236435
    25  C    0.008618
    26  C    0.059859
    27  C   -0.227543
    28  C   -0.227523
    29  C    0.008644
    30  C    0.059815
    31  C   -0.236424
    32  C   -0.236466
    33  C    0.059864
    34  C    0.008625
    35  C   -0.227512
    36  C   -0.227557
    37  C    0.059818
    38  C    0.008679
    39  C   -0.236448
    40  C   -0.236492
    41  C    0.008671
    42  C    0.059824
    43  C   -0.227546
    44  C   -0.227530
    45  C    0.008707
    46  C    0.059791
    47  C   -0.236440
    48  C   -0.236489
    49  C    0.059846
    50  C    0.008641
    51  C   -0.227537
    52  C   -0.227532
    53  C    0.059828
    54  C    0.008665
    55  C   -0.236438
    56  C   -0.236452
    57  C    0.008602
    58  C    0.059849
    59  C   -0.227540
    60  C   -0.227524
    61  C    0.008665
    62  C    0.059827
    63  C   -0.236435
    64  C   -0.236452
    65  C    0.059858
    66  C    0.008618
    67  C   -0.227522
    68  C   -0.227543
    69  C    0.059813
    70  C    0.008646
    71  C   -0.236467
    72  C   -0.236425
    73  C    0.008625
    74  C    0.059865
    75  C   -0.227557
    76  C   -0.227513
    77  C    0.008677
    78  C    0.059820
    79  C   -0.236493
    80  C   -0.236446
    81  H    0.191431
    82  H    0.191433
    83  H    0.204081
    84  H    0.204075
    85  H    0.191426
    86  H    0.191424
    87  H    0.204081
    88  H    0.204074
    89  H    0.191421
    90  H    0.191425
    91  H    0.204084
    92  H    0.204082
    93  H    0.191424
    94  H    0.191425
    95  H    0.204068
    96  H    0.204085
    97  H    0.191425
    98  H    0.191426
    99  H    0.204075
   100  H    0.204080
   101  H    0.191432
   102  H    0.191431
   103  H    0.204075
   104  H    0.204081
   105  H    0.191424
   106  H    0.191426
   107  H    0.204074
   108  H    0.204081
   109  H    0.191425
   110  H    0.191421
   111  H    0.204082
   112  H    0.204084
   113  H    0.191425
   114  H    0.191423
   115  H    0.204085
   116  H    0.204068
   117  H    0.191426
   118  H    0.191425
   119  H    0.204079
   120  H    0.204075
 Sum of Mulliken charges =  -0.00000

 Dipole moment (field-independent basis, Debye):
    X=             -0.0000    Y=             -0.0000    Z=             -0.0000  Tot=              0.0000
 Quadrupole moment (field-independent basis, Debye-Ang):
   XX=           -481.6815   YY=           -481.6910   ZZ=           -390.0395
   XY=             -0.0008   XZ=             -0.0062   YZ=              0.0013

 Normal termination of Gaussian 16 at Sun Apr 27 18:20:47 2025.
