 Gaussian 16, Revision B.01,
 Gaussian 16:  ES64L-G16RevB.01 20-Dec-2017

 ----------------------
 # B3LYP/6-311G* NOSYMM
 ----------------------

 ----------------------
 From 12_12-CNB_opt.out
 ----------------------
 Symbolic Z-matrix:
 Charge =  0 Multiplicity = 1

                          Input orientation:
 ---------------------------------------------------------------------
 Center     Atomic      Atomic             Coordinates (Angstroms)
 Number     Number       Type             X           Y           Z
 ---------------------------------------------------------------------
      1          6           0        8.139727   -1.519802   -1.219621
      2          6           0        8.242747   -0.831107    0.032308
      3          6           0        8.290740    0.578947   -2.448382
      4          6           0        8.274562   -0.777654   -2.448417
      5          6           0        8.173700    1.324056   -1.219556
      6          6           0        8.260277    0.633046    0.032348
      7          6           0        8.175223    1.401797    1.198187
      8          6           0        7.846974    2.686209   -1.241256
      9          6           0        7.554469    3.402106   -0.075344
     10          6           0        7.810022    2.754131    1.176505
     11          6           0        7.556816    3.464435    2.405413
     12          6           0        6.892854    4.647560    2.405725
     13          6           0        6.838025    4.679132   -0.074998
     14          6           0        6.418231    5.234288    1.177156
     15          6           0        5.454018    6.250379    1.199427
     16          6           0        6.379520    5.302573   -1.240543
     17          6           0        5.386919    6.290965   -1.218273
     18          6           0        4.841909    6.723885    0.033857
     19          6           0        3.644939    7.471645   -2.446598
     20          6           0        4.811849    6.779589   -2.446871
     21          6           0        2.940843    7.741753   -1.217717
     22          6           0        3.582454    7.470795    0.034159
     23          6           0        2.873740    7.780465    1.200037
     24          6           0        1.597634    8.139216   -1.239464
     25          6           0        0.831105    8.242738   -0.073664
     26          6           0        1.519808    8.139719    1.178273
     27          6           0        0.777652    8.274565    2.407061
     28          6           0       -0.578950    8.290748    2.407027
     29          6           0       -0.633049    8.260276   -0.073704
     30          6           0       -1.324067    8.173702    1.178208
     31          6           0       -2.686211    7.846981    1.199906
     32          6           0       -1.401797    8.175225   -1.239537
     33          6           0       -2.754140    7.810015   -1.217853
     34          6           0       -3.402108    7.554467    0.033987
     35          6           0       -4.647555    6.892839   -2.447081
     36          6           0       -3.464431    7.556805   -2.446768
     37          6           0       -5.234279    6.418228   -1.218504
     38          6           0       -4.679131    6.838021    0.033641
     39          6           0       -5.302577    6.379514    1.199193
     40          6           0       -6.250379    5.454009   -1.240777
     41          6           0       -6.723891    4.841909   -0.075214
     42          6           0       -6.290968    5.386927    1.176924
     43          6           0       -6.779607    4.811858    2.405515
     44          6           0       -7.471667    3.644950    2.405242
     45          6           0       -7.470807    3.582457   -0.075516
     46          6           0       -7.741773    2.940842    1.176370
     47          6           0       -8.139233    1.597643    1.198115
     48          6           0       -7.780478    2.873747   -1.241386
     49          6           0       -8.139726    1.519803   -1.219620
     50          6           0       -8.242746    0.831108    0.032309
     51          6           0       -8.290740   -0.578947   -2.448381
     52          6           0       -8.274562    0.777654   -2.448416
     53          6           0       -8.173699   -1.324055   -1.219555
     54          6           0       -8.260276   -0.633045    0.032349
     55          6           0       -8.175222   -1.401796    1.198188
     56          6           0       -7.846973   -2.686208   -1.241255
     57          6           0       -7.554468   -3.402105   -0.075342
     58          6           0       -7.810021   -2.754130    1.176506
     59          6           0       -7.556815   -3.464434    2.405414
     60          6           0       -6.892853   -4.647559    2.405727
     61          6           0       -6.838024   -4.679131   -0.074996
     62          6           0       -6.418230   -5.234287    1.177158
     63          6           0       -5.454017   -6.250378    1.199428
     64          6           0       -6.379520   -5.302573   -1.240541
     65          6           0       -5.386918   -6.290965   -1.218272
     66          6           0       -4.841908   -6.723884    0.033858
     67          6           0       -3.644939   -7.471644   -2.446596
     68          6           0       -4.811849   -6.779589   -2.446869
     69          6           0       -2.940842   -7.741753   -1.217716
     70          6           0       -3.582453   -7.470794    0.034161
     71          6           0       -2.873739   -7.780464    1.200038
     72          6           0       -1.597633   -8.139216   -1.239462
     73          6           0       -0.831104   -8.242738   -0.073663
     74          6           0       -1.519807   -8.139718    1.178274
     75          6           0       -0.777651   -8.274563    2.407062
     76          6           0        0.578951   -8.290747    2.407028
     77          6           0        0.633050   -8.260275   -0.073703
     78          6           0        1.324068   -8.173702    1.178209
     79          6           0        2.686211   -7.846980    1.199907
     80          6           0        1.401798   -8.175224   -1.239536
     81          6           0        2.754140   -7.810015   -1.217853
     82          6           0        3.402109   -7.554467    0.033987
     83          6           0        4.647555   -6.892839   -2.447081
     84          6           0        3.464431   -7.556805   -2.446768
     85          6           0        5.234280   -6.418227   -1.218504
     86          6           0        4.679132   -6.838020    0.033642
     87          6           0        5.302578   -6.379514    1.199193
     88          6           0        6.250379   -5.454008   -1.240777
     89          6           0        6.723891   -4.841909   -0.075214
     90          6           0        6.290969   -5.386926    1.176924
     91          6           0        6.779608   -4.811857    2.405515
     92          6           0        7.471668   -3.644949    2.405242
     93          6           0        7.470808   -3.582457   -0.075516
     94          6           0        7.741774   -2.940841    1.176369
     95          6           0        8.139234   -1.597642    1.198114
     96          6           0        7.780478   -2.873747   -1.241387
     97          1           0        8.324733    1.131420   -3.384301
     98          1           0        8.295394   -1.330733   -3.384362
     99          1           0        8.285652    0.930926    2.170374
    100          1           0        7.717901    3.152287   -2.213451
    101          1           0        7.851859    2.995839    3.341196
    102          1           0        6.646738    5.143115    3.341771
    103          1           0        5.109636    6.589346    2.171822
    104          1           0        6.710236    4.950281   -2.212945
    105          1           0        3.183559    7.777832   -3.382388
    106          1           0        5.301458    6.521735   -3.382884
    107          1           0        3.336584    7.640332    2.172246
    108          1           0        1.129571    8.260788   -2.211675
    109          1           0        1.330714    8.295405    3.343016
    110          1           0       -1.131405    8.324753    3.342956
    111          1           0       -3.152298    7.717903    2.172096
    112          1           0       -0.930937    8.285669   -2.211727
    113          1           0       -5.143118    6.646705   -3.383116
    114          1           0       -2.995815    7.851846   -3.382542
    115          1           0       -4.950268    6.710224    2.171591
    116          1           0       -6.589339    5.109634   -2.213177
    117          1           0       -6.521771    5.301458    3.341538
    118          1           0       -7.777858    3.183592    3.341042
    119          1           0       -8.260807    1.129570    2.170321
    120          1           0       -7.640364    3.336590   -2.213599
    121          1           0       -8.324733   -1.131419   -3.384299
    122          1           0       -8.295394    1.330733   -3.384361
    123          1           0       -8.285651   -0.930925    2.170375
    124          1           0       -7.717900   -3.152286   -2.213449
    125          1           0       -7.851858   -2.995838    3.341198
    126          1           0       -6.646737   -5.143114    3.341772
    127          1           0       -5.109635   -6.589345    2.171824
    128          1           0       -6.710236   -4.950280   -2.212943
    129          1           0       -3.183559   -7.777832   -3.382386
    130          1           0       -5.301458   -6.521735   -3.382883
    131          1           0       -3.336583   -7.640331    2.172248
    132          1           0       -1.129571   -8.260788   -2.211673
    133          1           0       -1.330713   -8.295404    3.343018
    134          1           0        1.131406   -8.324751    3.342957
    135          1           0        3.152299   -7.717902    2.172097
    136          1           0        0.930937   -8.285668   -2.211726
    137          1           0        5.143118   -6.646704   -3.383116
    138          1           0        2.995815   -7.851846   -3.382541
    139          1           0        4.950269   -6.710223    2.171592
    140          1           0        6.589339   -5.109634   -2.213178
    141          1           0        6.521772   -5.301457    3.341538
    142          1           0        7.777859   -3.183591    3.341042
    143          1           0        8.260808   -1.129569    2.170320
    144          1           0        7.640364   -3.336590   -2.213600
 ---------------------------------------------------------------------

 SCF Done:  E(RB3LYP) =  -3688.06033924     A.U. after   19 cycles

 Alpha  occ. eigenvalues --  -10.19495 -10.19495 -10.19495 -10.19495 -10.19494
 Alpha  occ. eigenvalues --  -10.19494 -10.19494 -10.19494 -10.19493 -10.19493
 Alpha  occ. eigenvalues --  -10.19493 -10.19493 -10.19463 -10.19463 -10.19463
 Alpha  occ. eigenvalues --  -10.19462 -10.19462 -10.19462 -10.19462 -10.19462
 Alpha  occ. eigenvalues --  -10.19461 -10.19461 -10.19461 -10.19461 -10.19217
 Alpha  occ. eigenvalues --  -10.19217 -10.19217 -10.19217 -10.19216 -10.19216
 Alpha  occ. eigenvalues --  -10.19216 -10.19216 -10.19216 -10.19216 -10.19216
 Alpha  occ. eigenvalues --  -10.19216 -10.19216 -10.19215 -10.19215 -10.19215
 Alpha  occ. eigenvalues --  -10.19215 -10.19215 -10.19215 -10.19215 -10.19215
 Alpha  occ. eigenvalues --  -10.19214 -10.19214 -10.19214 -10.18301 -10.18301
 Alpha  occ. eigenvalues --  -10.18301 -10.18301 -10.18301 -10.18301 -10.18301
 Alpha  occ. eigenvalues --  -10.18301 -10.18300 -10.18300 -10.18300 -10.18300
 Alpha  occ. eigenvalues --  -10.18300 -10.18300 -10.18300 -10.18299 -10.18299
 Alpha  occ. eigenvalues --  -10.18299 -10.18299 -10.18299 -10.18299 -10.18299
 Alpha  occ. eigenvalues --  -10.18299 -10.18299 -10.18290 -10.18290 -10.18290
 Alpha  occ. eigenvalues --  -10.18290 -10.18290 -10.18290 -10.18290 -10.18290
 Alpha  occ. eigenvalues --  -10.18290 -10.18290 -10.18290 -10.18290 -10.18221
 Alpha  occ. eigenvalues --  -10.18221 -10.18221 -10.18221 -10.18221 -10.18221
 Alpha  occ. eigenvalues --  -10.18221 -10.18221 -10.18221 -10.18221 -10.18221
 Alpha  occ. eigenvalues --  -10.18221  -0.90328  -0.90181  -0.90181  -0.89743
 Alpha  occ. eigenvalues --   -0.89743  -0.89021  -0.89021  -0.88033  -0.88033
 Alpha  occ. eigenvalues --   -0.86811  -0.86811  -0.85563  -0.85253  -0.83977
 Alpha  occ. eigenvalues --   -0.83977  -0.82726  -0.82726  -0.81662  -0.81662
 Alpha  occ. eigenvalues --   -0.80640  -0.80640  -0.80361  -0.79992  -0.79992
 Alpha  occ. eigenvalues --   -0.79595  -0.79595  -0.78904  -0.78845  -0.78845
 Alpha  occ. eigenvalues --   -0.77323  -0.77001  -0.77001  -0.76536  -0.76536
 Alpha  occ. eigenvalues --   -0.75344  -0.75344  -0.74472  -0.74472  -0.73713
 Alpha  occ. eigenvalues --   -0.73713  -0.72345  -0.72345  -0.72117  -0.72117
 Alpha  occ. eigenvalues --   -0.71180  -0.71180  -0.70660  -0.70442  -0.67478
 Alpha  occ. eigenvalues --   -0.65949  -0.65949  -0.65747  -0.65240  -0.65240
 Alpha  occ. eigenvalues --   -0.64187  -0.64187  -0.64161  -0.64161  -0.63465
 Alpha  occ. eigenvalues --   -0.63465  -0.62798  -0.62446  -0.62446  -0.61612
 Alpha  occ. eigenvalues --   -0.61611  -0.61134  -0.61133  -0.60086  -0.60086
 Alpha  occ. eigenvalues --   -0.58708  -0.58708  -0.57950  -0.57811  -0.57811
 Alpha  occ. eigenvalues --   -0.57257  -0.57257  -0.56530  -0.56438  -0.56437
 Alpha  occ. eigenvalues --   -0.54036  -0.54019  -0.54019  -0.53541  -0.53089
 Alpha  occ. eigenvalues --   -0.53089  -0.52933  -0.52933  -0.51470  -0.51470
 Alpha  occ. eigenvalues --   -0.51217  -0.51217  -0.51047  -0.51047  -0.50307
 Alpha  occ. eigenvalues --   -0.50303  -0.50303  -0.48329  -0.48329  -0.48104
 Alpha  occ. eigenvalues --   -0.47720  -0.47720  -0.47626  -0.47626  -0.47297
 Alpha  occ. eigenvalues --   -0.47296  -0.46487  -0.46487  -0.46344  -0.46344
 Alpha  occ. eigenvalues --   -0.45861  -0.45103  -0.45103  -0.45088  -0.45088
 Alpha  occ. eigenvalues --   -0.44594  -0.44165  -0.44074  -0.44074  -0.43802
 Alpha  occ. eigenvalues --   -0.43802  -0.43587  -0.43583  -0.43582  -0.43420
 Alpha  occ. eigenvalues --   -0.43420  -0.43281  -0.43280  -0.43128  -0.43128
 Alpha  occ. eigenvalues --   -0.42590  -0.42430  -0.42430  -0.42219  -0.42219
 Alpha  occ. eigenvalues --   -0.41863  -0.41862  -0.41760  -0.41739  -0.41159
 Alpha  occ. eigenvalues --   -0.41159  -0.41016  -0.41016  -0.40984  -0.40983
 Alpha  occ. eigenvalues --   -0.40956  -0.40333  -0.40333  -0.40325  -0.40325
 Alpha  occ. eigenvalues --   -0.39936  -0.39936  -0.39847  -0.39847  -0.39392
 Alpha  occ. eigenvalues --   -0.39392  -0.39056  -0.37605  -0.37605  -0.37404
 Alpha  occ. eigenvalues --   -0.37403  -0.37292  -0.36680  -0.36680  -0.36395
 Alpha  occ. eigenvalues --   -0.35843  -0.35824  -0.35824  -0.35523  -0.35523
 Alpha  occ. eigenvalues --   -0.34593  -0.34593  -0.34569  -0.34569  -0.34351
 Alpha  occ. eigenvalues --   -0.34351  -0.33851  -0.33851  -0.33667  -0.33666
 Alpha  occ. eigenvalues --   -0.33623  -0.33096  -0.33096  -0.32673  -0.32673
 Alpha  occ. eigenvalues --   -0.32472  -0.32405  -0.32405  -0.31719  -0.31347
 Alpha  occ. eigenvalues --   -0.31347  -0.31122  -0.31122  -0.30114  -0.30114
 Alpha  occ. eigenvalues --   -0.29363  -0.29363  -0.29086  -0.28038  -0.26900
 Alpha  occ. eigenvalues --   -0.26900  -0.26867  -0.26867  -0.25401  -0.25401
 Alpha  occ. eigenvalues --   -0.23587  -0.23586  -0.23140  -0.23140  -0.21525
 Alpha  occ. eigenvalues --   -0.21524  -0.21219  -0.21219  -0.20216  -0.20216
 Alpha  occ. eigenvalues --   -0.20006  -0.19689
 Alpha virt. eigenvalues --   -0.08292  -0.07684  -0.07168  -0.07168  -0.07043
 Alpha virt. eigenvalues --   -0.07043  -0.05919  -0.05918  -0.04652  -0.04651
 Alpha virt. eigenvalues --   -0.04521  -0.04521  -0.02031  -0.02031  -0.01186

 Mulliken charges:
               1
     1  C    0.062243
     2  C    0.004497
     3  C   -0.227246
     4  C   -0.227263
     5  C    0.062229
     6  C    0.004519
     7  C   -0.235539
     8  C   -0.235540
     9  C    0.004532
    10  C    0.062257
    11  C   -0.227283
    12  C   -0.227235
    13  C    0.004537
    14  C    0.062220
    15  C   -0.235560
    16  C   -0.235562
    17  C    0.062226
    18  C    0.004532
    19  C   -0.227281
    20  C   -0.227237
    21  C    0.062260
    22  C    0.004537
    23  C   -0.235539
    24  C   -0.235545
    25  C    0.004493
    26  C    0.062247
    27  C   -0.227267
    28  C   -0.227246
    29  C    0.004519
    30  C    0.062228
    31  C   -0.235536
    32  C   -0.235542
    33  C    0.062256
    34  C    0.004535
    35  C   -0.227235
    36  C   -0.227281
    37  C    0.062219
    38  C    0.004538
    39  C   -0.235560
    40  C   -0.235563
    41  C    0.004530
    42  C    0.062227
    43  C   -0.227239
    44  C   -0.227282
    45  C    0.004535
    46  C    0.062261
    47  C   -0.235543
    48  C   -0.235540
    49  C    0.062243
    50  C    0.004497
    51  C   -0.227246
    52  C   -0.227264
    53  C    0.062229
    54  C    0.004519
    55  C   -0.235540
    56  C   -0.235539
    57  C    0.004533
    58  C    0.062257
    59  C   -0.227283
    60  C   -0.227235
    61  C    0.004537
    62  C    0.062220
    63  C   -0.235561
    64  C   -0.235561
    65  C    0.062226
    66  C    0.004532
    67  C   -0.227281
    68  C   -0.227236
    69  C    0.062261
    70  C    0.004536
    71  C   -0.235539
    72  C   -0.235546
    73  C    0.004495
    74  C    0.062246
    75  C   -0.227266
    76  C   -0.227246
    77  C    0.004518
    78  C    0.062229
    79  C   -0.235538
    80  C   -0.235541
    81  C    0.062256
    82  C    0.004534
    83  C   -0.227235
    84  C   -0.227281
    85  C    0.062219
    86  C    0.004537
    87  C   -0.235560
    88  C   -0.235562
    89  C    0.004531
    90  C    0.062227
    91  C   -0.227239
    92  C   -0.227281
    93  C    0.004536
    94  C    0.062261
    95  C   -0.235543
    96  C   -0.235540
    97  H    0.190646
    98  H    0.190649
    99  H    0.205397
   100  H    0.205386
   101  H    0.190651
   102  H    0.190653
   103  H    0.205385
   104  H    0.205387
   105  H    0.190652
   106  H    0.190655
   107  H    0.205386
   108  H    0.205396
   109  H    0.190649
   110  H    0.190646
   111  H    0.205386
   112  H    0.205397
   113  H    0.190654
   114  H    0.190651
   115  H    0.205387
   116  H    0.205385
   117  H    0.190655
   118  H    0.190651
   119  H    0.205396
   120  H    0.205385
   121  H    0.190647
   122  H    0.190649
   123  H    0.205397
   124  H    0.205386
   125  H    0.190651
   126  H    0.190654
   127  H    0.205385
   128  H    0.205387
   129  H    0.190651
   130  H    0.190654
   131  H    0.205385
   132  H    0.205396
   133  H    0.190648
   134  H    0.190646
   135  H    0.205386
   136  H    0.205397
   137  H    0.190654
   138  H    0.190651
   139  H    0.205387
   140  H    0.205385
   141  H    0.190654
   142  H    0.190651
   143  H    0.205396
   144  H    0.205385
 Sum of Mulliken charges =  -0.00000

 Dipole moment (field-independent basis, Debye):
    X=             -0.0000    Y=              0.0000    Z=             -0.0000  Tot=              0.0000
 Quadrupole moment (field-independent basis, Debye-Ang):
   XX=           -577.8513   YY=           -577.8516   ZZ=           -468.1279
   XY=             -0.0000   XZ=              0.0000   YZ=              0.0001

 Normal termination of Gaussian 16 at Sun Apr 27 18:22:24 2025.
