 Gaussian 16, Revision B.01,
 Gaussian 16:  ES64L-G16RevB.01 20-Dec-2017

 ----------------------
 # B3LYP/6-311G* NOSYMM
 ----------------------

 ----------------------
 From 14_14-CNB_opt.out
 ----------------------
 Symbolic Z-matrix:
 Charge =  0 Multiplicity = 1

                          Input orientation:
 ---------------------------------------------------------------------
 Center     Atomic      Atomic             Coordinates (Angstroms)
 Number     Number       Type             X           Y           Z
 ---------------------------------------------------------------------
      1          6           0        9.537042   -1.520840   -1.216438
      2          6           0        9.624921   -0.830101    0.035568
      3          6           0        9.667444    0.579906   -2.445385
      4          6           0        9.653567   -0.776795   -2.445381
      5          6           0        9.566201    1.326198   -1.216452
      6          6           0        9.639959    0.633819    0.035562
      7          6           0        9.567122    1.402918    1.201566
      8          6           0        9.285228    2.698508   -1.237639
      9          6           0        9.032170    3.428442   -0.071633
     10          6           0        9.252773    2.767969    1.180386
     11          6           0        9.034888    3.488843    2.409341
     12          6           0        8.458590    4.717141    2.409371
     13          6           0        8.410442    4.753851   -0.071595
     14          6           0        8.043525    5.345578    1.180458
     15          6           0        7.194860    6.459995    1.201712
     16          6           0        8.011062    5.415240   -1.237554
     17          6           0        7.135497    6.508663   -1.216301
     18          6           0        6.650175    7.007914    0.035736
     19          6           0        5.574510    7.920609   -2.445200
     20          6           0        6.626520    7.063802   -2.445219
     21          6           0        4.927847    8.306654   -1.216271
     22          6           0        5.515045    7.932448    0.035748
     23          6           0        4.868261    8.354955    1.201740
     24          6           0        3.679774    8.942667   -1.237497
     25          6           0        2.951226    9.199767   -0.071516
     26          6           0        3.605052    8.960315    1.180519
     27          6           0        2.905562    9.239442    2.409443
     28          6           0        1.585966    9.554899    2.409425
     29          6           0        1.527346    9.540155   -0.071532
     30          6           0        0.835899    9.622301    1.180482
     31          6           0       -0.564522    9.653744    1.201677
     32          6           0        0.761290    9.640205   -1.237524
     33          6           0       -0.639487    9.637446   -1.216327
     34          6           0       -1.332473    9.569439    0.035680
     35          6           0       -2.716498    9.296867   -2.445316
     36          6           0       -1.390755    9.585376   -2.445290
     37          6           0       -3.421539    9.032077   -1.216386
     38          6           0       -2.763017    9.258238    0.035654
     39          6           0       -3.496709    9.016116    1.201623
     40          6           0       -4.696802    8.452536   -1.237627
     41          6           0       -5.352077    8.043311   -0.071639
     42          6           0       -4.757438    8.405591    1.180383
     43          6           0       -5.411817    8.032752    2.409303
     44          6           0       -6.480921    7.197371    2.409321
     45          6           0       -6.505734    7.142004   -0.071629
     46          6           0       -7.001046    6.652657    1.180414
     47          6           0       -7.898606    5.577224    1.201660
     48          6           0       -7.061478    6.605303   -1.237603
     49          6           0       -7.932589    5.508331   -1.216351
     50          6           0       -8.311406    4.924149    0.035691
     51          6           0       -8.961442    3.672115   -2.445251
     52          6           0       -8.360336    4.888465   -2.445276
     53          6           0       -9.193998    2.955849   -1.216290
     54          6           0       -8.960039    3.611693    0.035725
     55          6           0       -9.228031    2.887111    1.201732
     56          6           0       -9.536216    1.597511   -1.237460
     57          6           0       -9.624919    0.830099   -0.071449
     58          6           0       -9.537048    1.520846    1.180562
     59          6           0       -9.653582    0.776797    2.409494
     60          6           0       -9.667456   -0.579908    2.409500
     61          6           0       -9.639956   -0.633818   -0.071443
     62          6           0       -9.566204   -1.326204    1.180577
     63          6           0       -9.285228   -2.698509    1.201760
     64          6           0       -9.567111   -1.402916   -1.237444
     65          6           0       -9.252761   -2.767972   -1.216262
     66          6           0       -9.032168   -3.428442    0.035752
     67          6           0       -8.458575   -4.717134   -2.445256
     68          6           0       -9.034869   -3.488838   -2.445227
     69          6           0       -8.043521   -5.345571   -1.216334
     70          6           0       -8.410441   -4.753855    0.035714
     71          6           0       -8.011070   -5.415249    1.201675
     72          6           0       -7.194857   -6.459995   -1.237592
     73          6           0       -6.650177   -7.007918   -0.071617
     74          6           0       -7.135510   -6.508670    1.180424
     75          6           0       -6.626536   -7.063820    2.409331
     76          6           0       -5.574522   -7.920627    2.409314
     77          6           0       -5.515048   -7.932450   -0.071629
     78          6           0       -4.927848   -8.306666    1.180395
     79          6           0       -3.679778   -8.942673    1.201618
     80          6           0       -4.868258   -8.354950   -1.237619
     81          6           0       -3.605044   -8.960309   -1.216396
     82          6           0       -2.951228   -9.199767    0.035635
     83          6           0       -1.585965   -9.554886   -2.445311
     84          6           0       -2.905557   -9.239427   -2.445330
     85          6           0       -0.835905   -9.622295   -1.216358
     86          6           0       -1.527345   -9.540157    0.035651
     87          6           0       -0.761290   -9.640213    1.201645
     88          6           0        0.564522   -9.653742   -1.237557
     89          6           0        1.332474   -9.569439   -0.071563
     90          6           0        0.639482   -9.637454    1.180450
     91          6           0        1.390757   -9.585392    2.409402
     92          6           0        2.716503   -9.296880    2.409429
     93          6           0        2.763014   -9.258236   -0.071537
     94          6           0        3.421547   -9.032080    1.180508
     95          6           0        4.696803   -8.452537    1.201745
     96          6           0        3.496702   -9.016105   -1.237504
     97          6           0        4.757435   -8.405576   -1.216262
     98          6           0        5.352075   -8.043309    0.035755
     99          6           0        6.480905   -7.197354   -2.445210
    100          6           0        5.411803   -8.032731   -2.445193
    101          6           0        7.001035   -6.652652   -1.216294
    102          6           0        6.505736   -7.142002    0.035745
    103          6           0        7.061488   -6.605310    1.201721
    104          6           0        7.898603   -5.577219   -1.237542
    105          6           0        8.311410   -4.924149   -0.071575
    106          6           0        7.932597   -5.508344    1.180472
    107          6           0        8.360358   -4.888479    2.409387
    108          6           0        8.961462   -3.672124    2.409363
    109          6           0        8.960041   -3.611696   -0.071608
    110          6           0        9.194010   -2.955848    1.180412
    111          6           0        9.536222   -1.597515    1.201580
    112          6           0        9.228025   -2.887110   -1.237612
    113          1           0        9.696899    1.132161   -3.381578
    114          1           0        9.671745   -1.329544   -3.381568
    115          1           0        9.662101    0.928628    2.173679
    116          1           0        9.174660    3.169344   -2.209776
    117          1           0        9.291113    2.998724    3.345526
    118          1           0        8.245458    5.227429    3.345583
    119          1           0        6.890914    6.836153    2.173866
    120          1           0        8.302523    5.029309   -2.209702
    121          1           0        5.161172    8.288075   -3.381379
    122          1           0        7.070052    6.733449   -3.381411
    123          1           0        5.298236    8.133508    2.173874
    124          1           0        3.242824    9.149950   -2.209645
    125          1           0        3.448449    9.134065    3.345648
    126          1           0        1.054103    9.706473    3.345619
    127          1           0       -1.048165    9.650662    2.173806
    128          1           0        1.244779    9.627240   -2.209649
    129          1           0       -3.261431    9.202549   -3.381513
    130          1           0       -0.855885    9.726095   -3.381465
    131          1           0       -3.055685    9.214562    2.173775
    132          1           0       -5.131134    8.239810   -2.209771
    133          1           0       -4.991155    8.391778    3.345497
    134          1           0       -6.931013    6.876052    3.345528
    135          1           0       -8.197787    5.197243    2.173805
    136          1           0       -6.750026    6.975275   -2.209755
    137          1           0       -9.227575    3.187285   -3.381425
    138          1           0       -8.136889    5.394351   -3.381473
    139          1           0       -9.107915    3.355624    2.173859
    140          1           0       -9.640784    1.125240   -2.209570
    141          1           0       -9.671750    1.329525    3.345695
    142          1           0       -9.696910   -1.132140    3.345706
    143          1           0       -9.174659   -3.169351    2.173894
    144          1           0       -9.662088   -0.928633   -2.209561
    145          1           0       -8.245434   -5.227442   -3.381455
    146          1           0       -9.291112   -2.998703   -3.381399
    147          1           0       -8.302536   -5.029315    2.173820
    148          1           0       -6.890914   -6.836147   -2.209748
    149          1           0       -7.070047   -6.733475    3.345538
    150          1           0       -5.161201   -8.288081    3.345507
    151          1           0       -3.242823   -9.149959    2.173763
    152          1           0       -5.298228   -8.133505   -2.209756
    153          1           0       -1.054081   -9.706467   -3.381491
    154          1           0       -3.448467   -9.134055   -3.381522
    155          1           0       -1.244785   -9.627247    2.173767
    156          1           0        1.048159   -9.650660   -2.209689
    157          1           0        0.855906   -9.726096    3.345591
    158          1           0        3.261415   -9.202565    3.345639
    159          1           0        5.131141   -8.239810    2.173886
    160          1           0        3.055683   -9.214546   -2.209659
    161          1           0        6.931013   -6.876019   -3.381403
    162          1           0        4.991128   -8.391775   -3.381373
    163          1           0        6.750033   -6.975288    2.173869
    164          1           0        8.197778   -5.197240   -2.209690
    165          1           0        8.136913   -5.394342    3.345597
    166          1           0        9.227586   -3.187315    3.345552
    167          1           0        9.640793   -1.125238    2.173688
    168          1           0        9.107912   -3.355617   -2.209742
 ---------------------------------------------------------------------

 SCF Done:  E(RB3LYP) =  -4302.76557626     A.U. after   17 cycles

 Alpha  occ. eigenvalues --  -10.19498 -10.19498 -10.19498 -10.19498 -10.19498
 Alpha  occ. eigenvalues --  -10.19498 -10.19498 -10.19497 -10.19497 -10.19497
 Alpha  occ. eigenvalues --  -10.19497 -10.19497 -10.19496 -10.19496 -10.19466
 Alpha  occ. eigenvalues --  -10.19466 -10.19465 -10.19465 -10.19465 -10.19465
 Alpha  occ. eigenvalues --  -10.19465 -10.19465 -10.19465 -10.19465 -10.19465
 Alpha  occ. eigenvalues --  -10.19465 -10.19464 -10.19464 -10.19222 -10.19222
 Alpha  occ. eigenvalues --  -10.19222 -10.19222 -10.19221 -10.19221 -10.19221
 Alpha  occ. eigenvalues --  -10.19221 -10.19221 -10.19221 -10.19221 -10.19221
 Alpha  occ. eigenvalues --  -10.19221 -10.19221 -10.19221 -10.19221 -10.19221
 Alpha  occ. eigenvalues --  -10.19220 -10.19220 -10.19220 -10.19220 -10.19220
 Alpha  occ. eigenvalues --  -10.19220 -10.19220 -10.19220 -10.19219 -10.19219
 Alpha  occ. eigenvalues --  -10.19219 -10.18302 -10.18302 -10.18302 -10.18302
 Alpha  occ. eigenvalues --  -10.18302 -10.18302 -10.18302 -10.18302 -10.18302
 Alpha  occ. eigenvalues --  -10.18302 -10.18302 -10.18302 -10.18302 -10.18301
 Alpha  occ. eigenvalues --  -10.18301 -10.18301 -10.18301 -10.18301 -10.18301
 Alpha  occ. eigenvalues --  -10.18301 -10.18300 -10.18300 -10.18300 -10.18300
 Alpha  occ. eigenvalues --  -10.18300 -10.18300 -10.18300 -10.18300 -10.18295
 Alpha  occ. eigenvalues --  -10.18295 -10.18295 -10.18295 -10.18295 -10.18295
 Alpha  occ. eigenvalues --  -10.18295 -10.18294 -10.18294 -10.18294 -10.18294
 Alpha  occ. eigenvalues --  -10.18294 -10.18294 -10.18294 -10.18225 -10.18225
 Alpha  occ. eigenvalues --  -10.18225 -10.18225 -10.18225 -10.18225 -10.18225
 Alpha  occ. eigenvalues --  -10.18225 -10.18225 -10.18225 -10.18225 -10.18225
 Alpha  occ. eigenvalues --  -10.18225 -10.18225  -0.90323  -0.90216  -0.90216
 Alpha  occ. eigenvalues --   -0.89895  -0.89894  -0.89364  -0.89364  -0.88631
 Alpha  occ. eigenvalues --   -0.88631  -0.87710  -0.87710  -0.86629  -0.86629
 Alpha  occ. eigenvalues --   -0.85571  -0.85265  -0.84185  -0.84185  -0.83071
 Alpha  occ. eigenvalues --   -0.83071  -0.82114  -0.82114  -0.81237  -0.81237
 Alpha  occ. eigenvalues --   -0.80377  -0.80353  -0.80353  -0.80109  -0.80109
 Alpha  occ. eigenvalues --   -0.79463  -0.79463  -0.79274  -0.79274  -0.78914
 Alpha  occ. eigenvalues --   -0.77884  -0.77884  -0.77344  -0.76724  -0.76724
 Alpha  occ. eigenvalues --   -0.76107  -0.76107  -0.75661  -0.75661  -0.74309
 Alpha  occ. eigenvalues --   -0.74309  -0.73886  -0.73886  -0.73135  -0.73135
 Alpha  occ. eigenvalues --   -0.71993  -0.71993  -0.71798  -0.71798  -0.71064
 Alpha  occ. eigenvalues --   -0.71064  -0.70671  -0.70458  -0.67509  -0.66271
 Alpha  occ. eigenvalues --   -0.66271  -0.65777  -0.65392  -0.65392  -0.64609
 Alpha  occ. eigenvalues --   -0.64609  -0.64523  -0.64523  -0.63674  -0.63674
 Alpha  occ. eigenvalues --   -0.63596  -0.63596  -0.62829  -0.62569  -0.62569
 Alpha  occ. eigenvalues --   -0.61870  -0.61870  -0.61353  -0.61353  -0.60800
 Alpha  occ. eigenvalues --   -0.60800  -0.59711  -0.59711  -0.58546  -0.58546
 Alpha  occ. eigenvalues --   -0.57960  -0.57821  -0.57821  -0.57287  -0.57287
 Alpha  occ. eigenvalues --   -0.57128  -0.57128  -0.56542  -0.55437  -0.55437
 Alpha  occ. eigenvalues --   -0.54060  -0.53574  -0.53394  -0.53394  -0.53318
 Alpha  occ. eigenvalues --   -0.53318  -0.53074  -0.53074  -0.51956  -0.51956
 Alpha  occ. eigenvalues --   -0.51377  -0.51377  -0.51029  -0.51029  -0.50642
 Alpha  occ. eigenvalues --   -0.50642  -0.50466  -0.50466  -0.50319  -0.48224
 Alpha  occ. eigenvalues --   -0.48224  -0.48089  -0.48028  -0.48028  -0.47813
 Alpha  occ. eigenvalues --   -0.47812  -0.47315  -0.47315  -0.47245  -0.47245
 Alpha  occ. eigenvalues --   -0.46358  -0.46358  -0.46242  -0.46242  -0.45866
 Alpha  occ. eigenvalues --   -0.45737  -0.45737  -0.44847  -0.44847  -0.44613
 Alpha  occ. eigenvalues --   -0.44428  -0.44428  -0.44183  -0.44164  -0.44164
 Alpha  occ. eigenvalues --   -0.43884  -0.43884  -0.43601  -0.43601  -0.43580
 Alpha  occ. eigenvalues --   -0.43463  -0.43463  -0.43190  -0.43190  -0.43156
 Alpha  occ. eigenvalues --   -0.43156  -0.43094  -0.43094  -0.42554  -0.42427
 Alpha  occ. eigenvalues --   -0.42427  -0.42103  -0.42103  -0.42011  -0.42011
 Alpha  occ. eigenvalues --   -0.41735  -0.41731  -0.41412  -0.41412  -0.40977
 Alpha  occ. eigenvalues --   -0.40977  -0.40950  -0.40950  -0.40929  -0.40919
 Alpha  occ. eigenvalues --   -0.40919  -0.40522  -0.40522  -0.40265  -0.40265
 Alpha  occ. eigenvalues --   -0.40235  -0.40235  -0.39796  -0.39796  -0.39635
 Alpha  occ. eigenvalues --   -0.39635  -0.39337  -0.39337  -0.39078  -0.37899
 Alpha  occ. eigenvalues --   -0.37899  -0.37549  -0.37549  -0.37298  -0.36831
 Alpha  occ. eigenvalues --   -0.36831  -0.36565  -0.36565  -0.36474  -0.35911
 Alpha  occ. eigenvalues --   -0.35881  -0.35881  -0.35287  -0.35287  -0.34833
 Alpha  occ. eigenvalues --   -0.34833  -0.34831  -0.34831  -0.34353  -0.34353
 Alpha  occ. eigenvalues --   -0.33937  -0.33937  -0.33842  -0.33842  -0.33830
 Alpha  occ. eigenvalues --   -0.33830  -0.33663  -0.33061  -0.33061  -0.32848
 Alpha  occ. eigenvalues --   -0.32848  -0.32656  -0.32656  -0.32506  -0.32018
 Alpha  occ. eigenvalues --   -0.32018  -0.31763  -0.31334  -0.31334  -0.31050
 Alpha  occ. eigenvalues --   -0.31050  -0.30031  -0.30031  -0.29966  -0.29966
 Alpha  occ. eigenvalues --   -0.29113  -0.28095  -0.28076  -0.28076  -0.27136
 Alpha  occ. eigenvalues --   -0.27136  -0.25918  -0.25918  -0.25800  -0.25800
 Alpha  occ. eigenvalues --   -0.23796  -0.23796  -0.23015  -0.23015  -0.22460
 Alpha  occ. eigenvalues --   -0.22460  -0.21108  -0.21108  -0.21019  -0.21019
 Alpha  occ. eigenvalues --   -0.20104  -0.20078  -0.20078  -0.19678
 Alpha virt. eigenvalues --   -0.08274  -0.07763  -0.07370  -0.07370  -0.07326
 Alpha virt. eigenvalues --   -0.07326  -0.06372  -0.06372  -0.05277  -0.05277
 Alpha virt. eigenvalues --   -0.05124  -0.05124  -0.04151  -0.04151  -0.01826

 Mulliken charges:
               1
     1  C    0.063806
     2  C    0.001820
     3  C   -0.227019
     4  C   -0.227031
     5  C    0.063797
     6  C    0.001827
     7  C   -0.234997
     8  C   -0.234990
     9  C    0.001847
    10  C    0.063788
    11  C   -0.227019
    12  C   -0.227040
    13  C    0.001789
    14  C    0.063838
    15  C   -0.234985
    16  C   -0.234986
    17  C    0.063814
    18  C    0.001811
    19  C   -0.227017
    20  C   -0.227027
    21  C    0.063783
    22  C    0.001814
    23  C   -0.235003
    24  C   -0.234964
    25  C    0.001799
    26  C    0.063817
    27  C   -0.227003
    28  C   -0.227050
    29  C    0.001787
    30  C    0.063831
    31  C   -0.234969
    32  C   -0.234973
    33  C    0.063832
    34  C    0.001785
    35  C   -0.226997
    36  C   -0.227051
    37  C    0.063811
    38  C    0.001815
    39  C   -0.234963
    40  C   -0.235006
    41  C    0.001802
    42  C    0.063789
    43  C   -0.227015
    44  C   -0.227029
    45  C    0.001818
    46  C    0.063816
    47  C   -0.234983
    48  C   -0.234986
    49  C    0.063832
    50  C    0.001776
    51  C   -0.227022
    52  C   -0.227032
    53  C    0.063792
    54  C    0.001845
    55  C   -0.234982
    56  C   -0.235001
    57  C    0.001817
    58  C    0.063809
    59  C   -0.227033
    60  C   -0.227021
    61  C    0.001826
    62  C    0.063799
    63  C   -0.234990
    64  C   -0.235000
    65  C    0.063787
    66  C    0.001848
    67  C   -0.227037
    68  C   -0.227018
    69  C    0.063834
    70  C    0.001791
    71  C   -0.234983
    72  C   -0.234986
    73  C    0.001808
    74  C    0.063817
    75  C   -0.227028
    76  C   -0.227019
    77  C    0.001813
    78  C    0.063785
    79  C   -0.234962
    80  C   -0.235006
    81  C    0.063816
    82  C    0.001800
    83  C   -0.227048
    84  C   -0.227001
    85  C    0.063827
    86  C    0.001789
    87  C   -0.234970
    88  C   -0.234970
    89  C    0.001785
    90  C    0.063833
    91  C   -0.227052
    92  C   -0.227000
    93  C    0.001812
    94  C    0.063815
    95  C   -0.235006
    96  C   -0.234965
    97  C    0.063786
    98  C    0.001804
    99  C   -0.227026
   100  C   -0.227014
   101  C    0.063813
   102  C    0.001819
   103  C   -0.234983
   104  C   -0.234984
   105  C    0.001775
   106  C    0.063833
   107  C   -0.227034
   108  C   -0.227025
   109  C    0.001843
   110  C    0.063795
   111  C   -0.235001
   112  C   -0.234984
   113  H    0.190144
   114  H    0.190145
   115  H    0.206250
   116  H    0.206244
   117  H    0.190145
   118  H    0.190144
   119  H    0.206246
   120  H    0.206245
   121  H    0.190142
   122  H    0.190146
   123  H    0.206249
   124  H    0.206244
   125  H    0.190144
   126  H    0.190143
   127  H    0.206243
   128  H    0.206247
   129  H    0.190145
   130  H    0.190145
   131  H    0.206242
   132  H    0.206245
   133  H    0.190141
   134  H    0.190144
   135  H    0.206246
   136  H    0.206248
   137  H    0.190145
   138  H    0.190143
   139  H    0.206249
   140  H    0.206250
   141  H    0.190144
   142  H    0.190144
   143  H    0.206244
   144  H    0.206250
   145  H    0.190144
   146  H    0.190145
   147  H    0.206245
   148  H    0.206246
   149  H    0.190145
   150  H    0.190142
   151  H    0.206244
   152  H    0.206248
   153  H    0.190144
   154  H    0.190144
   155  H    0.206247
   156  H    0.206243
   157  H    0.190144
   158  H    0.190144
   159  H    0.206245
   160  H    0.206242
   161  H    0.190145
   162  H    0.190142
   163  H    0.206249
   164  H    0.206246
   165  H    0.190142
   166  H    0.190144
   167  H    0.206250
   168  H    0.206249
 Sum of Mulliken charges =  -0.00000

 Dipole moment (field-independent basis, Debye):
    X=             -0.0000    Y=              0.0000    Z=             -0.0000  Tot=              0.0000
 Quadrupole moment (field-independent basis, Debye-Ang):
   XX=           -674.0128   YY=           -674.0080   ZZ=           -546.1867
   XY=             -0.0003   XZ=             -0.0047   YZ=              0.0004

 Normal termination of Gaussian 16 at Sun Apr 27 18:24:09 2025.
