 Gaussian 16, Revision B.01,
 Gaussian 16:  ES64L-G16RevB.01 20-Dec-2017

 ----------------------
 # B3LYP/6-311G* NOSYMM
 ----------------------

 ----------------------
 From 16_16-CNB_opt.out
 ----------------------
 Symbolic Z-matrix:
 Charge =  0 Multiplicity = 1

                          Input orientation:
 ---------------------------------------------------------------------
 Center     Atomic      Atomic             Coordinates (Angstroms)
 Number     Number       Type             X           Y           Z
 ---------------------------------------------------------------------
      1          6           0       10.930678   -1.521235   -1.214361
      2          6           0       11.007492   -0.829195    0.037693
      3          6           0       11.044823    0.580886   -2.443400
      4          6           0       11.032864   -0.775884   -2.443409
      5          6           0       10.955685    1.327889   -1.214340
      6          6           0       11.020224    0.634582    0.037701
      7          6           0       10.956303    1.403797    1.203868
      8          6           0       10.708940    2.706766   -1.235066
      9          6           0       10.486072    3.445793   -0.068921
     10          6           0       10.680203    2.777095    1.183142
     11          6           0       10.489151    3.504752    2.412192
     12          6           0        9.980746    4.762718    2.412197
     13          6           0        9.937455    4.802925   -0.068909
     14          6           0        9.612493    5.418732    1.183143
     15          6           0        8.856971    6.598295    1.203914
     16          6           0        9.583978    5.489160   -1.235041
     17          6           0        8.803430    6.652302   -1.214272
     18          6           0        8.368351    7.195912    0.037794
     19          6           0        7.397864    8.219548   -2.443327
     20          6           0        8.348605    7.251537   -2.443328
     21          6           0        6.806833    8.684973   -1.214266
     22          6           0        7.342500    8.240143    0.037792
     23          6           0        6.753525    8.739117    1.203924
     24          6           0        5.657770    9.486112   -1.235034
     25          6           0        4.977818    9.851572   -0.068919
     26          6           0        5.587646    9.515581    1.183154
     27          6           0        4.938270    9.895454    2.412191
     28          6           0        3.689610   10.426306    2.412170
     29          6           0        3.630608   10.424117   -0.068947
     30          6           0        2.965460   10.630163    1.183099
     31          6           0        1.597233   10.930408    1.203834
     32          6           0        2.895572   10.659804   -1.235102
     33          6           0        1.521235   10.930675   -1.214366
     34          6           0        0.829195   11.007490    0.037688
     35          6           0       -0.580885   11.044819   -2.443406
     36          6           0        0.775885   11.032860   -2.443414
     37          6           0       -1.327889   10.955683   -1.214346
     38          6           0       -0.634582   11.020223    0.037695
     39          6           0       -1.403798   10.956303    1.203862
     40          6           0       -2.706766   10.708938   -1.235073
     41          6           0       -3.445793   10.486071   -0.068927
     42          6           0       -2.777096   10.680203    1.183136
     43          6           0       -3.504753   10.489152    2.412186
     44          6           0       -4.762719    9.980747    2.412191
     45          6           0       -4.802926    9.937455   -0.068915
     46          6           0       -5.418733    9.612493    1.183137
     47          6           0       -6.598296    8.856972    1.203907
     48          6           0       -5.489160    9.583978   -1.235047
     49          6           0       -6.652303    8.803430   -1.214278
     50          6           0       -7.195913    8.368352    0.037788
     51          6           0       -8.219549    7.397864   -2.443333
     52          6           0       -7.251538    8.348605   -2.443334
     53          6           0       -8.684974    6.806833   -1.214272
     54          6           0       -8.240143    7.342501    0.037786
     55          6           0       -8.739118    6.753525    1.203918
     56          6           0       -9.486113    5.657770   -1.235039
     57          6           0       -9.851573    4.977818   -0.068925
     58          6           0       -9.515582    5.587647    1.183148
     59          6           0       -9.895455    4.938271    2.412185
     60          6           0      -10.426307    3.689611    2.412165
     61          6           0      -10.424118    3.630608   -0.068952
     62          6           0      -10.630165    2.965460    1.183094
     63          6           0      -10.930410    1.597233    1.203829
     64          6           0      -10.659804    2.895572   -1.235108
     65          6           0      -10.930675    1.521235   -1.214370
     66          6           0      -11.007491    0.829195    0.037683
     67          6           0      -11.044819   -0.580886   -2.443410
     68          6           0      -11.032860    0.775884   -2.443418
     69          6           0      -10.955683   -1.327889   -1.214350
     70          6           0      -11.020223   -0.634582    0.037692
     71          6           0      -10.956303   -1.403797    1.203858
     72          6           0      -10.708938   -2.706766   -1.235076
     73          6           0      -10.486071   -3.445793   -0.068929
     74          6           0      -10.680203   -2.777095    1.183133
     75          6           0      -10.489153   -3.504752    2.412184
     76          6           0       -9.980747   -4.762718    2.412189
     77          6           0       -9.937454   -4.802926   -0.068917
     78          6           0       -9.612493   -5.418732    1.183135
     79          6           0       -8.856971   -6.598295    1.203907
     80          6           0       -9.583977   -5.489160   -1.235049
     81          6           0       -8.803429   -6.652303   -1.214279
     82          6           0       -8.368351   -7.195913    0.037788
     83          6           0       -7.397861   -8.219549   -2.443333
     84          6           0       -8.348603   -7.251538   -2.443334
     85          6           0       -6.806832   -8.684974   -1.214271
     86          6           0       -7.342500   -8.240143    0.037787
     87          6           0       -6.753525   -8.739117    1.203918
     88          6           0       -5.657768   -9.486113   -1.235038
     89          6           0       -4.977817   -9.851573   -0.068923
     90          6           0       -5.587647   -9.515581    1.183150
     91          6           0       -4.938272   -9.895454    2.412187
     92          6           0       -3.689611  -10.426306    2.412168
     93          6           0       -3.630608  -10.424118   -0.068949
     94          6           0       -2.965460  -10.630164    1.183097
     95          6           0       -1.597233  -10.930409    1.203833
     96          6           0       -2.895570  -10.659805   -1.235104
     97          6           0       -1.521234  -10.930676   -1.214367
     98          6           0       -0.829195  -11.007491    0.037687
     99          6           0        0.580888  -11.044820   -2.443405
    100          6           0       -0.775882  -11.032861   -2.443414
    101          6           0        1.327891  -10.955683   -1.214345
    102          6           0        0.634582  -11.020223    0.037697
    103          6           0        1.403797  -10.956303    1.203863
    104          6           0        2.706767  -10.708939   -1.235070
    105          6           0        3.445794  -10.486071   -0.068924
    106          6           0        2.777095  -10.680203    1.183138
    107          6           0        3.504752  -10.489152    2.412189
    108          6           0        4.762718   -9.980747    2.412195
    109          6           0        4.802927   -9.937455   -0.068911
    110          6           0        5.418733   -9.612493    1.183141
    111          6           0        6.598296   -8.856972    1.203913
    112          6           0        5.489161   -9.583978   -1.235042
    113          6           0        6.652304   -8.803429   -1.214272
    114          6           0        7.195914   -8.368351    0.037794
    115          6           0        8.219551   -7.397863   -2.443327
    116          6           0        7.251540   -8.348604   -2.443328
    117          6           0        8.684975   -6.806833   -1.214264
    118          6           0        8.240144   -7.342501    0.037793
    119          6           0        8.739117   -6.753525    1.203925
    120          6           0        9.486114   -5.657769   -1.235031
    121          6           0        9.851574   -4.977818   -0.068917
    122          6           0        9.515581   -5.587647    1.183156
    123          6           0        9.895454   -4.938271    2.412193
    124          6           0       10.426306   -3.689611    2.412174
    125          6           0       10.424119   -3.630608   -0.068943
    126          6           0       10.630164   -2.965460    1.183103
    127          6           0       10.930409   -1.597233    1.203838
    128          6           0       10.659807   -2.895572   -1.235098
    129          1           0       11.070583    1.133020   -3.379768
    130          1           0       11.048861   -1.328371   -3.379787
    131          1           0       11.039579    0.927212    2.175902
    132          1           0       10.612015    3.180717   -2.207119
    133          1           0       10.715434    3.000475    3.348571
    134          1           0        9.793205    5.282649    3.348574
    135          1           0        8.586177    6.999148    2.175973
    136          1           0        9.843439    5.080871   -2.207096
    137          1           0        7.025733    8.628243   -3.379698
    138          1           0        8.750518    6.872098   -3.379701
    139          1           0        7.149235    8.460879    2.175987
    140          1           0        5.254214    9.752861   -2.207092
    141          1           0        5.454728    9.698594    3.348579
    142          1           0        3.189470   10.661644    3.348535
    143          1           0        1.122260   11.022464    2.175866
    144          1           0        3.367728   10.554515   -2.207158
    145          1           0       -1.133019   11.070578   -3.379774
    146          1           0        1.328372   11.048858   -3.379792
    147          1           0       -0.927213   11.039580    2.175897
    148          1           0       -3.180716   10.612012   -2.207125
    149          1           0       -3.000476   10.715436    3.348565
    150          1           0       -5.282651    9.793206    3.348568
    151          1           0       -6.999149    8.586178    2.175967
    152          1           0       -5.080872    9.843438   -2.207102
    153          1           0       -8.628244    7.025733   -3.379704
    154          1           0       -6.872099    8.750518   -3.379708
    155          1           0       -8.460880    7.149236    2.175981
    156          1           0       -9.752862    5.254214   -2.207098
    157          1           0       -9.698595    5.454729    3.348573
    158          1           0      -10.661646    3.189472    3.348530
    159          1           0      -11.022466    1.122261    2.175862
    160          1           0      -10.554514    3.367728   -2.207163
    161          1           0      -11.070578   -1.133020   -3.379778
    162          1           0      -11.048856    1.328371   -3.379797
    163          1           0      -11.039580   -0.927212    2.175893
    164          1           0      -10.612012   -3.180717   -2.207128
    165          1           0      -10.715436   -3.000475    3.348562
    166          1           0       -9.793207   -5.282649    3.348566
    167          1           0       -8.586179   -6.999148    2.175966
    168          1           0       -9.843437   -5.080872   -2.207104
    169          1           0       -7.025731   -8.628244   -3.379704
    170          1           0       -8.750516   -6.872099   -3.379708
    171          1           0       -7.149236   -8.460879    2.175981
    172          1           0       -5.254212   -9.752862   -2.207096
    173          1           0       -5.454730   -9.698594    3.348575
    174          1           0       -3.189472  -10.661644    3.348533
    175          1           0       -1.122261  -11.022465    2.175866
    176          1           0       -3.367726  -10.554515   -2.207160
    177          1           0        1.133022  -11.070579   -3.379773
    178          1           0       -1.328369  -11.048858   -3.379793
    179          1           0        0.927212  -11.039579    2.175898
    180          1           0        3.180719  -10.612013   -2.207123
    181          1           0        3.000474  -10.715435    3.348567
    182          1           0        5.282648   -9.793206    3.348572
    183          1           0        6.999148   -8.586178    2.175973
    184          1           0        5.080873   -9.843437   -2.207098
    185          1           0        8.628247   -7.025732   -3.379697
    186          1           0        6.872101   -8.750517   -3.379702
    187          1           0        8.460879   -7.149236    2.175988
    188          1           0        9.752864   -5.254213   -2.207090
    189          1           0        9.698593   -5.454730    3.348581
    190          1           0       10.661644   -3.189472    3.348539
    191          1           0       11.022465   -1.122261    2.175871
    192          1           0       10.554518   -3.367728   -2.207154
 ---------------------------------------------------------------------

 SCF Done:  E(RB3LYP) =  -4917.46746359     A.U. after   12 cycles

 Alpha  occ. eigenvalues --  -10.19502 -10.19502 -10.19502 -10.19502 -10.19502
 Alpha  occ. eigenvalues --  -10.19502 -10.19502 -10.19501 -10.19501 -10.19501
 Alpha  occ. eigenvalues --  -10.19501 -10.19501 -10.19500 -10.19500 -10.19500
 Alpha  occ. eigenvalues --  -10.19500 -10.19469 -10.19469 -10.19469 -10.19469
 Alpha  occ. eigenvalues --  -10.19469 -10.19469 -10.19469 -10.19469 -10.19469
 Alpha  occ. eigenvalues --  -10.19468 -10.19468 -10.19468 -10.19468 -10.19468
 Alpha  occ. eigenvalues --  -10.19468 -10.19468 -10.19227 -10.19227 -10.19227
 Alpha  occ. eigenvalues --  -10.19227 -10.19227 -10.19227 -10.19227 -10.19226
 Alpha  occ. eigenvalues --  -10.19226 -10.19226 -10.19226 -10.19226 -10.19226
 Alpha  occ. eigenvalues --  -10.19226 -10.19226 -10.19226 -10.19226 -10.19226
 Alpha  occ. eigenvalues --  -10.19226 -10.19226 -10.19225 -10.19225 -10.19225
 Alpha  occ. eigenvalues --  -10.19225 -10.19225 -10.19225 -10.19225 -10.19225
 Alpha  occ. eigenvalues --  -10.19225 -10.19224 -10.19224 -10.19224 -10.18305
 Alpha  occ. eigenvalues --  -10.18305 -10.18305 -10.18305 -10.18304 -10.18304
 Alpha  occ. eigenvalues --  -10.18304 -10.18304 -10.18304 -10.18304 -10.18304
 Alpha  occ. eigenvalues --  -10.18304 -10.18304 -10.18304 -10.18304 -10.18304
 Alpha  occ. eigenvalues --  -10.18304 -10.18304 -10.18304 -10.18303 -10.18303
 Alpha  occ. eigenvalues --  -10.18303 -10.18303 -10.18303 -10.18303 -10.18303
 Alpha  occ. eigenvalues --  -10.18303 -10.18303 -10.18303 -10.18303 -10.18303
 Alpha  occ. eigenvalues --  -10.18303 -10.18299 -10.18299 -10.18299 -10.18299
 Alpha  occ. eigenvalues --  -10.18299 -10.18299 -10.18299 -10.18299 -10.18299
 Alpha  occ. eigenvalues --  -10.18299 -10.18299 -10.18299 -10.18298 -10.18298
 Alpha  occ. eigenvalues --  -10.18298 -10.18298 -10.18230 -10.18230 -10.18230
 Alpha  occ. eigenvalues --  -10.18230 -10.18230 -10.18230 -10.18230 -10.18230
 Alpha  occ. eigenvalues --  -10.18230 -10.18230 -10.18230 -10.18230 -10.18230
 Alpha  occ. eigenvalues --  -10.18230 -10.18230 -10.18230  -0.90322  -0.90240
 Alpha  occ. eigenvalues --   -0.90240  -0.89994  -0.89994  -0.89588  -0.89588
 Alpha  occ. eigenvalues --   -0.89024  -0.89024  -0.88310  -0.88310  -0.87459
 Alpha  occ. eigenvalues --   -0.87458  -0.86492  -0.86492  -0.85578  -0.85275
 Alpha  occ. eigenvalues --   -0.84342  -0.84342  -0.83343  -0.83343  -0.82466
 Alpha  occ. eigenvalues --   -0.82466  -0.81681  -0.81681  -0.80918  -0.80918
 Alpha  occ. eigenvalues --   -0.80389  -0.80185  -0.80185  -0.80137  -0.80137
 Alpha  occ. eigenvalues --   -0.79552  -0.79552  -0.79369  -0.79369  -0.78922
 Alpha  occ. eigenvalues --   -0.78480  -0.78480  -0.77360  -0.77045  -0.77045
 Alpha  occ. eigenvalues --   -0.76859  -0.76859  -0.75944  -0.75944  -0.75491
 Alpha  occ. eigenvalues --   -0.75491  -0.74657  -0.74657  -0.73742  -0.73742
 Alpha  occ. eigenvalues --   -0.73387  -0.73387  -0.72706  -0.72706  -0.71742
 Alpha  occ. eigenvalues --   -0.71742  -0.71565  -0.71565  -0.70986  -0.70986
 Alpha  occ. eigenvalues --   -0.70679  -0.70470  -0.67531  -0.66511  -0.66511
 Alpha  occ. eigenvalues --   -0.65798  -0.65496  -0.65496  -0.64996  -0.64996
 Alpha  occ. eigenvalues --   -0.64777  -0.64777  -0.63968  -0.63968  -0.63887
 Alpha  occ. eigenvalues --   -0.63887  -0.63497  -0.63497  -0.62851  -0.62652
 Alpha  occ. eigenvalues --   -0.62652  -0.62085  -0.62085  -0.61503  -0.61503
 Alpha  occ. eigenvalues --   -0.61175  -0.61175  -0.60448  -0.60448  -0.59422
 Alpha  occ. eigenvalues --   -0.59421  -0.58433  -0.58433  -0.57968  -0.57728
 Alpha  occ. eigenvalues --   -0.57728  -0.57705  -0.57705  -0.57031  -0.57031
 Alpha  occ. eigenvalues --   -0.56552  -0.56466  -0.56466  -0.54644  -0.54644
 Alpha  occ. eigenvalues --   -0.54078  -0.53597  -0.53482  -0.53482  -0.53188
 Alpha  occ. eigenvalues --   -0.53188  -0.53036  -0.53036  -0.52324  -0.52324
 Alpha  occ. eigenvalues --   -0.51546  -0.51546  -0.51100  -0.51100  -0.50891
 Alpha  occ. eigenvalues --   -0.50891  -0.50796  -0.50796  -0.50329  -0.50324
 Alpha  occ. eigenvalues --   -0.50324  -0.48377  -0.48377  -0.48081  -0.47945
 Alpha  occ. eigenvalues --   -0.47945  -0.47873  -0.47873  -0.47628  -0.47628
 Alpha  occ. eigenvalues --   -0.47374  -0.47374  -0.47077  -0.47077  -0.46266
 Alpha  occ. eigenvalues --   -0.46266  -0.46144  -0.46144  -0.45955  -0.45955
 Alpha  occ. eigenvalues --   -0.45871  -0.45103  -0.45102  -0.44693  -0.44693
 Alpha  occ. eigenvalues --   -0.44627  -0.44204  -0.44204  -0.44196  -0.43949
 Alpha  occ. eigenvalues --   -0.43949  -0.43925  -0.43925  -0.43756  -0.43756
 Alpha  occ. eigenvalues --   -0.43577  -0.43550  -0.43550  -0.43308  -0.43308
 Alpha  occ. eigenvalues --   -0.43226  -0.43226  -0.43129  -0.43129  -0.42819
 Alpha  occ. eigenvalues --   -0.42819  -0.42533  -0.42433  -0.42433  -0.42113
 Alpha  occ. eigenvalues --   -0.42112  -0.42019  -0.42019  -0.41728  -0.41720
 Alpha  occ. eigenvalues --   -0.41632  -0.41632  -0.41049  -0.41048  -0.40959
 Alpha  occ. eigenvalues --   -0.40959  -0.40932  -0.40932  -0.40912  -0.40879
 Alpha  occ. eigenvalues --   -0.40879  -0.40685  -0.40685  -0.40390  -0.40390
 Alpha  occ. eigenvalues --   -0.40097  -0.40097  -0.40011  -0.40011  -0.39690
 Alpha  occ. eigenvalues --   -0.39690  -0.39576  -0.39576  -0.39300  -0.39300
 Alpha  occ. eigenvalues --   -0.39094  -0.38155  -0.38155  -0.37476  -0.37476
 Alpha  occ. eigenvalues --   -0.37303  -0.37170  -0.37170  -0.36936  -0.36936
 Alpha  occ. eigenvalues --   -0.36528  -0.36146  -0.36146  -0.35957  -0.35923
 Alpha  occ. eigenvalues --   -0.35923  -0.35256  -0.35256  -0.35017  -0.35017
 Alpha  occ. eigenvalues --   -0.34897  -0.34897  -0.34368  -0.34368  -0.34215
 Alpha  occ. eigenvalues --   -0.34215  -0.34068  -0.34068  -0.33818  -0.33818
 Alpha  occ. eigenvalues --   -0.33693  -0.33693  -0.33690  -0.33143  -0.33143
 Alpha  occ. eigenvalues --   -0.32977  -0.32977  -0.32646  -0.32646  -0.32530
 Alpha  occ. eigenvalues --   -0.32483  -0.32483  -0.31793  -0.31699  -0.31699
 Alpha  occ. eigenvalues --   -0.31470  -0.31470  -0.30815  -0.30815  -0.30474
 Alpha  occ. eigenvalues --   -0.30474  -0.29852  -0.29852  -0.29133  -0.28910
 Alpha  occ. eigenvalues --   -0.28910  -0.28134  -0.27332  -0.27332  -0.27032
 Alpha  occ. eigenvalues --   -0.27032  -0.26153  -0.26153  -0.25448  -0.25448
 Alpha  occ. eigenvalues --   -0.24008  -0.24008  -0.23185  -0.23185  -0.22543
 Alpha  occ. eigenvalues --   -0.22542  -0.21946  -0.21946  -0.20883  -0.20883
 Alpha  occ. eigenvalues --   -0.20814  -0.20813  -0.20171  -0.19985  -0.19985
 Alpha  occ. eigenvalues --   -0.19674
 Alpha virt. eigenvalues --   -0.08263  -0.07817  -0.07521  -0.07521  -0.07509
 Alpha virt. eigenvalues --   -0.07509  -0.06700  -0.06700  -0.05802  -0.05801
 Alpha virt. eigenvalues --   -0.05626  -0.05626  -0.04552  -0.04552  -0.04227

 Mulliken charges:
               1
     1  C    0.064908
     2  C   -0.000007
     3  C   -0.226864
     4  C   -0.226857
     5  C    0.064930
     6  C   -0.000051
     7  C   -0.234654
     8  C   -0.234647
     9  C   -0.000013
    10  C    0.064900
    11  C   -0.226839
    12  C   -0.226894
    13  C   -0.000079
    14  C    0.064965
    15  C   -0.234628
    16  C   -0.234667
    17  C    0.064946
    18  C   -0.000050
    19  C   -0.226870
    20  C   -0.226860
    21  C    0.064961
    22  C   -0.000093
    23  C   -0.234620
    24  C   -0.234660
    25  C   -0.000064
    26  C    0.064954
    27  C   -0.226890
    28  C   -0.226846
    29  C   -0.000011
    30  C    0.064907
    31  C   -0.234665
    32  C   -0.234657
    33  C    0.064909
    34  C   -0.000007
    35  C   -0.226865
    36  C   -0.226857
    37  C    0.064930
    38  C   -0.000050
    39  C   -0.234655
    40  C   -0.234646
    41  C   -0.000015
    42  C    0.064902
    43  C   -0.226839
    44  C   -0.226894
    45  C   -0.000079
    46  C    0.064965
    47  C   -0.234628
    48  C   -0.234668
    49  C    0.064946
    50  C   -0.000048
    51  C   -0.226871
    52  C   -0.226859
    53  C    0.064962
    54  C   -0.000094
    55  C   -0.234620
    56  C   -0.234660
    57  C   -0.000064
    58  C    0.064955
    59  C   -0.226890
    60  C   -0.226847
    61  C   -0.000013
    62  C    0.064908
    63  C   -0.234666
    64  C   -0.234656
    65  C    0.064908
    66  C   -0.000007
    67  C   -0.226864
    68  C   -0.226857
    69  C    0.064930
    70  C   -0.000050
    71  C   -0.234654
    72  C   -0.234647
    73  C   -0.000014
    74  C    0.064901
    75  C   -0.226839
    76  C   -0.226894
    77  C   -0.000079
    78  C    0.064965
    79  C   -0.234628
    80  C   -0.234667
    81  C    0.064946
    82  C   -0.000049
    83  C   -0.226871
    84  C   -0.226860
    85  C    0.064961
    86  C   -0.000093
    87  C   -0.234620
    88  C   -0.234660
    89  C   -0.000064
    90  C    0.064955
    91  C   -0.226890
    92  C   -0.226847
    93  C   -0.000011
    94  C    0.064907
    95  C   -0.234665
    96  C   -0.234658
    97  C    0.064910
    98  C   -0.000008
    99  C   -0.226864
   100  C   -0.226857
   101  C    0.064930
   102  C   -0.000051
   103  C   -0.234655
   104  C   -0.234646
   105  C   -0.000014
   106  C    0.064901
   107  C   -0.226840
   108  C   -0.226894
   109  C   -0.000078
   110  C    0.064964
   111  C   -0.234628
   112  C   -0.234667
   113  C    0.064946
   114  C   -0.000049
   115  C   -0.226870
   116  C   -0.226860
   117  C    0.064961
   118  C   -0.000092
   119  C   -0.234620
   120  C   -0.234660
   121  C   -0.000063
   122  C    0.064954
   123  C   -0.226890
   124  C   -0.226846
   125  C   -0.000012
   126  C    0.064907
   127  C   -0.234666
   128  C   -0.234657
   129  H    0.189796
   130  H    0.189796
   131  H    0.206830
   132  H    0.206830
   133  H    0.189793
   134  H    0.189793
   135  H    0.206837
   136  H    0.206837
   137  H    0.189792
   138  H    0.189791
   139  H    0.206830
   140  H    0.206834
   141  H    0.189794
   142  H    0.189796
   143  H    0.206837
   144  H    0.206829
   145  H    0.189796
   146  H    0.189796
   147  H    0.206830
   148  H    0.206831
   149  H    0.189793
   150  H    0.189793
   151  H    0.206837
   152  H    0.206837
   153  H    0.189792
   154  H    0.189791
   155  H    0.206830
   156  H    0.206834
   157  H    0.189794
   158  H    0.189796
   159  H    0.206837
   160  H    0.206830
   161  H    0.189796
   162  H    0.189796
   163  H    0.206830
   164  H    0.206831
   165  H    0.189793
   166  H    0.189793
   167  H    0.206837
   168  H    0.206837
   169  H    0.189792
   170  H    0.189791
   171  H    0.206830
   172  H    0.206834
   173  H    0.189794
   174  H    0.189796
   175  H    0.206837
   176  H    0.206829
   177  H    0.189796
   178  H    0.189796
   179  H    0.206830
   180  H    0.206830
   181  H    0.189793
   182  H    0.189793
   183  H    0.206837
   184  H    0.206837
   185  H    0.189792
   186  H    0.189791
   187  H    0.206830
   188  H    0.206834
   189  H    0.189794
   190  H    0.189796
   191  H    0.206837
   192  H    0.206829
 Sum of Mulliken charges =  -0.00000

 Dipole moment (field-independent basis, Debye):
    X=             -0.0000    Y=              0.0000    Z=             -0.0003  Tot=              0.0003
 Quadrupole moment (field-independent basis, Debye-Ang):
   XX=           -770.1823   YY=           -770.1823   ZZ=           -624.2399
   XY=              0.0000   XZ=             -0.0000   YZ=             -0.0000

 Normal termination of Gaussian 16 at Sun Apr 27 19:24:48 2025.
