 Gaussian 16, Revision B.01,
 Gaussian 16:  ES64L-G16RevB.01 20-Dec-2017

 ----------------------
 # B3LYP/6-311G* NOSYMM
 ----------------------

 --------------------
 From 2_2-CNB_opt.out
 --------------------
 Symbolic Z-matrix:
 Charge =  0 Multiplicity = 1

                          Input orientation:
 ---------------------------------------------------------------------
 Center     Atomic      Atomic             Coordinates (Angstroms)
 Number     Number       Type             X           Y           Z
 ---------------------------------------------------------------------
      1          6           0        1.377582   -1.246533    0.113941
      2          6           0        0.498485   -0.496668    1.076006
      3          6           0        2.970676    0.487853   -0.006498
      4          6           0        2.823513   -0.847598    0.146744
      5          6           0        1.643962    1.170588   -0.163388
      6          6           0        0.648228    0.862068    0.920136
      7          6           0       -0.637986    1.651928    0.925970
      8          6           0        0.984541    1.211381   -1.353853
      9          6           0       -0.440839    0.738364   -1.203086
     10          6           0       -1.319937    1.488229   -0.241022
     11          6           0       -2.765867    1.089293   -0.273824
     12          6           0       -2.913030   -0.246157   -0.120583
     13          6           0       -0.590582   -0.620373   -1.047217
     14          6           0       -1.586316   -0.928893    0.036307
     15          6           0       -0.926896   -0.969686    1.226773
     16          6           0        0.695632   -1.410233   -1.053050
     17          1           0        3.928979    0.997587    0.048443
     18          1           0        3.650881   -1.525885    0.338005
     19          1           0       -1.107179    1.998720    1.843006
     20          1           0        1.494526    1.234805   -2.313403
     21          1           0       -3.593235    1.767581   -0.465086
     22          1           0       -3.871334   -0.755892   -0.175524
     23          1           0       -1.436881   -0.993110    2.186322
     24          1           0        1.164825   -1.757025   -1.970086
 ---------------------------------------------------------------------

 SCF Done:  E(RB3LYP) =  -614.256204809     A.U. after   14 cycles

 Alpha  occ. eigenvalues --  -10.20060 -10.20055 -10.19996 -10.19994 -10.19640
 Alpha  occ. eigenvalues --  -10.19639 -10.19636 -10.19636 -10.19142 -10.19142
 Alpha  occ. eigenvalues --  -10.19083 -10.19083 -10.19080 -10.19080 -10.19070
 Alpha  occ. eigenvalues --  -10.19070  -0.93671  -0.86184  -0.82906  -0.79411
 Alpha  occ. eigenvalues --   -0.79351  -0.75889  -0.72218  -0.66940  -0.66179
 Alpha  occ. eigenvalues --   -0.62901  -0.60144  -0.56284  -0.56271  -0.52708
 Alpha  occ. eigenvalues --   -0.52554  -0.49653  -0.49363  -0.47677  -0.47347
 Alpha  occ. eigenvalues --   -0.44632  -0.44057  -0.43851  -0.42465  -0.39715
 Alpha  occ. eigenvalues --   -0.39605  -0.38891  -0.38096  -0.32284  -0.31864
 Alpha  occ. eigenvalues --   -0.31731  -0.27496  -0.25835  -0.25776  -0.23541
 Alpha  occ. eigenvalues --   -0.22988  -0.21386
 Alpha virt. eigenvalues --   -0.05436  -0.05338  -0.03941  -0.01769  -0.01671
 Alpha virt. eigenvalues --   -0.01295   0.01129   0.02192   0.06284   0.06514
 Alpha virt. eigenvalues --    0.07642   0.07918   0.09919   0.10399   0.11690

 Mulliken charges:
               1
     1  C   -0.004305
     2  C   -0.012892
     3  C   -0.200528
     4  C   -0.200542
     5  C   -0.004324
     6  C   -0.012916
     7  C   -0.198102
     8  C   -0.198079
     9  C   -0.012893
    10  C   -0.004305
    11  C   -0.200542
    12  C   -0.200527
    13  C   -0.012916
    14  C   -0.004324
    15  C   -0.198079
    16  C   -0.198101
    17  H    0.208282
    18  H    0.208284
    19  H    0.207561
    20  H    0.207561
    21  H    0.208283
    22  H    0.208282
    23  H    0.207561
    24  H    0.207561
 Sum of Mulliken charges =  -0.00000

 Dipole moment (field-independent basis, Debye):
    X=              0.0000    Y=             -0.0000    Z=              0.0000  Tot=              0.0000
 Quadrupole moment (field-independent basis, Debye-Ang):
   XX=            -81.0383   YY=            -94.3322   ZZ=            -89.9105
   XY=             -1.8514   XZ=             -3.0684   YZ=              0.8812

 Normal termination of Gaussian 16 at Wed Jun 18 16:00:03 2025.
