 Gaussian 16, Revision B.01,
 Gaussian 16:  ES64L-G16RevB.01 20-Dec-2017

 ----------------------
 # B3LYP/6-311G* NOSYMM
 ----------------------

 --------------------
 From 4_4-CNB_opt.out
 --------------------
 Symbolic Z-matrix:
 Charge =  0 Multiplicity = 1

                          Input orientation:
 ---------------------------------------------------------------------
 Center     Atomic      Atomic             Coordinates (Angstroms)
 Number     Number       Type             X           Y           Z
 ---------------------------------------------------------------------
      1          6           0        2.381165   -1.455716   -1.238891
      2          6           0        2.695802   -0.832078    0.007719
      3          6           0        2.794951    0.584446   -2.468755
      4          6           0        2.749778   -0.768612   -2.468958
      5          6           0        2.472928    1.294294   -1.238549
      6          6           0        2.744777    0.650578    0.008008
      7          6           0        2.451983    1.391342    1.167059
      8          6           0        1.552180    2.354751   -1.274200
      9          6           0        0.832098    2.695897   -0.115274
     10          6           0        1.455713    2.381216    1.131331
     11          6           0        0.768617    2.749897    2.361417
     12          6           0       -0.584432    2.795060    2.361212
     13          6           0       -0.650589    2.744865   -0.115556
     14          6           0       -1.294275    2.472970    1.131009
     15          6           0       -2.354670    1.552169    1.166651
     16          6           0       -1.391328    2.452041   -1.274598
     17          6           0       -2.381165    1.455715   -1.238892
     18          6           0       -2.695802    0.832077    0.007719
     19          6           0       -2.794951   -0.584446   -2.468755
     20          6           0       -2.749777    0.768611   -2.468959
     21          6           0       -2.472928   -1.294295   -1.238549
     22          6           0       -2.744777   -0.650578    0.008008
     23          6           0       -2.451983   -1.391342    1.167059
     24          6           0       -1.552180   -2.354751   -1.274200
     25          6           0       -0.832098   -2.695898   -0.115274
     26          6           0       -1.455714   -2.381216    1.131331
     27          6           0       -0.768617   -2.749897    2.361417
     28          6           0        0.584431   -2.795060    2.361213
     29          6           0        0.650589   -2.744866   -0.115556
     30          6           0        1.294275   -2.472971    1.131009
     31          6           0        2.354670   -1.552169    1.166651
     32          6           0        1.391328   -2.452042   -1.274597
     33          1           0        2.910827    1.145251   -3.392996
     34          1           0        2.827963   -1.335623   -3.393367
     35          1           0        2.742450    1.015935    2.144449
     36          1           0        1.197640    2.670504   -2.251555
     37          1           0        1.335661    2.828182    3.285794
     38          1           0       -1.145248    2.911036    3.285435
     39          1           0       -2.670412    1.197610    2.144004
     40          1           0       -1.015918    2.742515   -2.251985
     41          1           0       -2.910826   -1.145252   -3.392996
     42          1           0       -2.827963    1.335622   -3.393367
     43          1           0       -2.742450   -1.015936    2.144448
     44          1           0       -1.197640   -2.670505   -2.251555
     45          1           0       -1.335662   -2.828182    3.285794
     46          1           0        1.145247   -2.911036    3.285436
     47          1           0        2.670412   -1.197610    2.144004
     48          1           0        1.015918   -2.742516   -2.251985
 ---------------------------------------------------------------------

 SCF Done:  E(RB3LYP) =  -1229.10826147     A.U. after   14 cycles

 Alpha  occ. eigenvalues --  -10.19794 -10.19793 -10.19793 -10.19792 -10.19767
 Alpha  occ. eigenvalues --  -10.19765 -10.19765 -10.19764 -10.19414 -10.19413
 Alpha  occ. eigenvalues --  -10.19413 -10.19413 -10.19411 -10.19411 -10.19411
 Alpha  occ. eigenvalues --  -10.19410 -10.18619 -10.18618 -10.18618 -10.18618
 Alpha  occ. eigenvalues --  -10.18616 -10.18616 -10.18616 -10.18615 -10.18437
 Alpha  occ. eigenvalues --  -10.18437 -10.18437 -10.18437 -10.18366 -10.18366
 Alpha  occ. eigenvalues --  -10.18366 -10.18366  -0.90868  -0.89368  -0.89368
 Alpha  occ. eigenvalues --   -0.85657  -0.85201  -0.81702  -0.81702  -0.80283
 Alpha  occ. eigenvalues --   -0.78936  -0.76997  -0.76604  -0.76603  -0.73523
 Alpha  occ. eigenvalues --   -0.73522  -0.70643  -0.70412  -0.66796  -0.65221
 Alpha  occ. eigenvalues --   -0.63250  -0.63250  -0.62279  -0.60854  -0.60854
 Alpha  occ. eigenvalues --   -0.58012  -0.56466  -0.56169  -0.56168  -0.53703
 Alpha  occ. eigenvalues --   -0.52920  -0.50332  -0.50332  -0.50165  -0.48784
 Alpha  occ. eigenvalues --   -0.47861  -0.47860  -0.46021  -0.45335  -0.45335
 Alpha  occ. eigenvalues --   -0.44636  -0.44028  -0.43870  -0.43767  -0.43637
 Alpha  occ. eigenvalues --   -0.43636  -0.42472  -0.42285  -0.42285  -0.42103
 Alpha  occ. eigenvalues --   -0.41637  -0.40159  -0.40159  -0.38770  -0.37381
 Alpha  occ. eigenvalues --   -0.34834  -0.34705  -0.34704  -0.34492  -0.34275
 Alpha  occ. eigenvalues --   -0.34275  -0.32887  -0.31785  -0.31473  -0.31473
 Alpha  occ. eigenvalues --   -0.30845  -0.28651  -0.26640  -0.25137  -0.25137
 Alpha  occ. eigenvalues --   -0.22831  -0.22830  -0.20360  -0.18089
 Alpha virt. eigenvalues --   -0.08874  -0.05932  -0.04293  -0.04292  -0.02845
 Alpha virt. eigenvalues --   -0.02131  -0.02131   0.01056   0.01953   0.02636
 Alpha virt. eigenvalues --    0.02636   0.03534   0.04511   0.05099   0.05099

 Mulliken charges:
               1
     1  C    0.037512
     2  C    0.028357
     3  C   -0.225008
     4  C   -0.225041
     5  C    0.037706
     6  C    0.028153
     7  C   -0.236914
     8  C   -0.237211
     9  C    0.028362
    10  C    0.037490
    11  C   -0.225037
    12  C   -0.225005
    13  C    0.028157
    14  C    0.037692
    15  C   -0.237206
    16  C   -0.236919
    17  C    0.037512
    18  C    0.028356
    19  C   -0.225008
    20  C   -0.225041
    21  C    0.037706
    22  C    0.028153
    23  C   -0.236914
    24  C   -0.237211
    25  C    0.028362
    26  C    0.037489
    27  C   -0.225037
    28  C   -0.225005
    29  C    0.028157
    30  C    0.037692
    31  C   -0.237206
    32  C   -0.236919
    33  H    0.199703
    34  H    0.199717
    35  H    0.196499
    36  H    0.196535
    37  H    0.199721
    38  H    0.199705
    39  H    0.196535
    40  H    0.196498
    41  H    0.199702
    42  H    0.199717
    43  H    0.196500
    44  H    0.196535
    45  H    0.199721
    46  H    0.199705
    47  H    0.196535
    48  H    0.196498
 Sum of Mulliken charges =  -0.00000

 Dipole moment (field-independent basis, Debye):
    X=             -0.0000    Y=              0.0000    Z=              0.0000  Tot=              0.0000
 Quadrupole moment (field-independent basis, Debye-Ang):
   XX=           -193.1287   YY=           -193.1276   ZZ=           -155.1134
   XY=              0.0002   XZ=              0.0000   YZ=             -0.0000

 Normal termination of Gaussian 16 at Tue Jun 17 13:23:40 2025.
