 Gaussian 16, Revision B.01,
 Gaussian 16:  ES64L-G16RevB.01 20-Dec-2017

 ----------------------
 # B3LYP/6-311G* NOSYMM
 ----------------------

 --------------------
 From 8_8-CNB_opt.out
 --------------------
 Symbolic Z-matrix:
 Charge =  0 Multiplicity = 1

                          Input orientation:
 ---------------------------------------------------------------------
 Center     Atomic      Atomic             Coordinates (Angstroms)
 Number     Number       Type             X           Y           Z
 ---------------------------------------------------------------------
      1          6           0        5.318006   -1.515088   -1.226137
      2          6           0        5.474286   -0.836365    0.025437
      3          6           0        5.543233    0.573698   -2.454498
      4          6           0        5.517696   -0.782487   -2.454513
      5          6           0        5.371259    1.313294   -1.226119
      6          6           0        5.501828    0.629167    0.025458
      7          6           0        5.370508    1.395644    1.190287
      8          6           0        4.887127    2.628096   -1.250839
      9          6           0        4.461944    3.279246   -0.086028
     10          6           0        4.831306    2.688815    1.165560
     11          6           0        4.454400    3.347913    2.393968
     12          6           0        3.513615    4.325044    2.393957
     13          6           0        3.445314    4.335173   -0.086037
     14          6           0        2.869263    4.726619    1.165546
     15          6           0        1.597367    5.314259    1.190265
     16          6           0        2.810702    4.784654   -1.250852
     17          6           0        1.515088    5.318014   -1.226136
     18          6           0        0.836364    5.474292    0.025438
     19          6           0       -0.573698    5.543243   -2.454497
     20          6           0        0.782486    5.517706   -2.454512
     21          6           0       -1.313294    5.371267   -1.226118
     22          6           0       -0.629168    5.501835    0.025459
     23          6           0       -1.395645    5.370515    1.190288
     24          6           0       -2.628097    4.887135   -1.250839
     25          6           0       -3.279246    4.461950   -0.086028
     26          6           0       -2.688816    4.831312    1.165559
     27          6           0       -3.347915    4.454406    2.393967
     28          6           0       -4.325045    3.513621    2.393956
     29          6           0       -4.335172    3.445319   -0.086038
     30          6           0       -4.726619    2.869268    1.165545
     31          6           0       -5.314257    1.597371    1.190263
     32          6           0       -4.784650    2.810706   -1.250853
     33          6           0       -5.318008    1.515090   -1.226137
     34          6           0       -5.474288    0.836368    0.025437
     35          6           0       -5.543235   -0.573696   -2.454497
     36          6           0       -5.517698    0.782488   -2.454513
     37          6           0       -5.371261   -1.313292   -1.226118
     38          6           0       -5.501830   -0.629165    0.025458
     39          6           0       -5.370510   -1.395641    1.190288
     40          6           0       -4.887129   -2.628094   -1.250838
     41          6           0       -4.461946   -3.279243   -0.086027
     42          6           0       -4.831308   -2.688813    1.165561
     43          6           0       -4.454402   -3.347909    2.393969
     44          6           0       -3.513617   -4.325041    2.393958
     45          6           0       -3.445316   -4.335171   -0.086036
     46          6           0       -2.869265   -4.726616    1.165548
     47          6           0       -1.597369   -5.314256    1.190266
     48          6           0       -2.810704   -4.784652   -1.250850
     49          6           0       -1.515090   -5.318012   -1.226134
     50          6           0       -0.836366   -5.474290    0.025440
     51          6           0        0.573696   -5.543242   -2.454495
     52          6           0       -0.782488   -5.517705   -2.454510
     53          6           0        1.313292   -5.371265   -1.226117
     54          6           0        0.629166   -5.501833    0.025461
     55          6           0        1.395643   -5.370512    1.190289
     56          6           0        2.628095   -4.887133   -1.250838
     57          6           0        3.279244   -4.461948   -0.086027
     58          6           0        2.688814   -4.831309    1.165561
     59          6           0        3.347913   -4.454403    2.393968
     60          6           0        4.325044   -3.513618    2.393957
     61          6           0        4.335170   -3.445317   -0.086038
     62          6           0        4.726617   -2.869265    1.165546
     63          6           0        5.314255   -1.597368    1.190264
     64          6           0        4.784648   -2.810704   -1.250852
     65          1           0        5.595091    1.127166   -3.389020
     66          1           0        5.548673   -1.337500   -3.389043
     67          1           0        5.531821    0.940783    2.163230
     68          1           0        4.696184    3.071334   -2.223778
     69          1           0        4.868648    2.977230    3.328493
     70          1           0        3.158864    4.753041    3.328472
     71          1           0        1.148914    5.492611    2.163203
     72          1           0        3.246417    4.577106   -2.223790
     73          1           0       -1.127166    5.595103   -3.389019
     74          1           0        1.337500    5.548685   -3.389042
     75          1           0       -0.940785    5.531828    2.163230
     76          1           0       -3.071335    4.696193   -2.223779
     77          1           0       -2.977233    4.868655    3.328492
     78          1           0       -4.753044    3.158870    3.328470
     79          1           0       -5.492610    1.148918    2.163202
     80          1           0       -4.577100    3.246419   -2.223791
     81          1           0       -5.595093   -1.127165   -3.389019
     82          1           0       -5.548675    1.337501   -3.389044
     83          1           0       -5.531823   -0.940780    2.163230
     84          1           0       -4.696186   -3.071332   -2.223777
     85          1           0       -4.868650   -2.977226    3.328494
     86          1           0       -3.158866   -4.753038    3.328473
     87          1           0       -1.148916   -5.492608    2.163205
     88          1           0       -3.246419   -4.577104   -2.223789
     89          1           0        1.127164   -5.595102   -3.389017
     90          1           0       -1.337502   -5.548684   -3.389040
     91          1           0        0.940783   -5.531825    2.163232
     92          1           0        3.071333   -4.696192   -2.223777
     93          1           0        2.977231   -4.868652    3.328494
     94          1           0        4.753042   -3.158867    3.328471
     95          1           0        5.492609   -1.148915    2.163202
     96          1           0        4.577098   -3.246417   -2.223791
 ---------------------------------------------------------------------

 SCF Done:  E(RB3LYP) =  -2458.63043136     A.U. after   13 cycles

 Alpha  occ. eigenvalues --  -10.19505 -10.19504 -10.19504 -10.19504 -10.19504
 Alpha  occ. eigenvalues --  -10.19503 -10.19503 -10.19503 -10.19473 -10.19472
 Alpha  occ. eigenvalues --  -10.19472 -10.19472 -10.19472 -10.19471 -10.19471
 Alpha  occ. eigenvalues --  -10.19471 -10.19219 -10.19219 -10.19219 -10.19219
 Alpha  occ. eigenvalues --  -10.19219 -10.19218 -10.19218 -10.19218 -10.19218
 Alpha  occ. eigenvalues --  -10.19218 -10.19218 -10.19217 -10.19217 -10.19217
 Alpha  occ. eigenvalues --  -10.19217 -10.19217 -10.18321 -10.18321 -10.18321
 Alpha  occ. eigenvalues --  -10.18321 -10.18320 -10.18320 -10.18320 -10.18320
 Alpha  occ. eigenvalues --  -10.18320 -10.18319 -10.18319 -10.18319 -10.18319
 Alpha  occ. eigenvalues --  -10.18318 -10.18318 -10.18318 -10.18294 -10.18294
 Alpha  occ. eigenvalues --  -10.18294 -10.18294 -10.18293 -10.18293 -10.18293
 Alpha  occ. eigenvalues --  -10.18293 -10.18224 -10.18224 -10.18224 -10.18224
 Alpha  occ. eigenvalues --  -10.18224 -10.18224 -10.18224 -10.18224  -0.90376
 Alpha  occ. eigenvalues --   -0.90040  -0.90040  -0.89045  -0.89045  -0.87445
 Alpha  occ. eigenvalues --   -0.87445  -0.85550  -0.85215  -0.83293  -0.83293
 Alpha  occ. eigenvalues --   -0.81637  -0.81637  -0.80316  -0.80087  -0.80087
 Alpha  occ. eigenvalues --   -0.79453  -0.79453  -0.78882  -0.77243  -0.76907
 Alpha  occ. eigenvalues --   -0.76907  -0.75839  -0.75839  -0.73656  -0.73656
 Alpha  occ. eigenvalues --   -0.73258  -0.73258  -0.71672  -0.71672  -0.70631
 Alpha  occ. eigenvalues --   -0.70394  -0.67349  -0.65633  -0.64893  -0.64893
 Alpha  occ. eigenvalues --   -0.64641  -0.64641  -0.63403  -0.63403  -0.62682
 Alpha  occ. eigenvalues --   -0.61928  -0.61928  -0.61048  -0.61048  -0.59330
 Alpha  occ. eigenvalues --   -0.59330  -0.57927  -0.57622  -0.57622  -0.56494
 Alpha  occ. eigenvalues --   -0.56380  -0.56379  -0.53946  -0.53413  -0.52995
 Alpha  occ. eigenvalues --   -0.52995  -0.52240  -0.52240  -0.51445  -0.51445
 Alpha  occ. eigenvalues --   -0.50275  -0.50275  -0.50272  -0.48224  -0.48223
 Alpha  occ. eigenvalues --   -0.48192  -0.47322  -0.47322  -0.46976  -0.46976
 Alpha  occ. eigenvalues --   -0.45962  -0.45962  -0.45858  -0.45126  -0.45126
 Alpha  occ. eigenvalues --   -0.44537  -0.44111  -0.43710  -0.43710  -0.43639
 Alpha  occ. eigenvalues --   -0.43603  -0.43603  -0.43160  -0.43160  -0.42864
 Alpha  occ. eigenvalues --   -0.42864  -0.42772  -0.42298  -0.42298  -0.41883
 Alpha  occ. eigenvalues --   -0.41787  -0.41426  -0.41426  -0.41239  -0.41239
 Alpha  occ. eigenvalues --   -0.41085  -0.40247  -0.40247  -0.40006  -0.40006
 Alpha  occ. eigenvalues --   -0.39615  -0.39615  -0.38983  -0.37328  -0.37328
 Alpha  occ. eigenvalues --   -0.37289  -0.36092  -0.36092  -0.36069  -0.35581
 Alpha  occ. eigenvalues --   -0.35581  -0.35560  -0.34333  -0.34332  -0.33978
 Alpha  occ. eigenvalues --   -0.33978  -0.33917  -0.33917  -0.33462  -0.32732
 Alpha  occ. eigenvalues --   -0.32732  -0.32341  -0.32220  -0.32220  -0.31543
 Alpha  occ. eigenvalues --   -0.30591  -0.30591  -0.30107  -0.30107  -0.28984
 Alpha  occ. eigenvalues --   -0.27791  -0.26562  -0.26562  -0.25897  -0.25897
 Alpha  occ. eigenvalues --   -0.23045  -0.23044  -0.22038  -0.22038  -0.20805
 Alpha  occ. eigenvalues --   -0.20805  -0.19757  -0.19596
 Alpha virt. eigenvalues --   -0.08387  -0.07349  -0.06354  -0.06354  -0.05954
 Alpha virt. eigenvalues --   -0.05954  -0.04463  -0.04463  -0.01788  -0.01788
 Alpha virt. eigenvalues --   -0.01042  -0.00896  -0.00896   0.02371   0.02371

 Mulliken charges:
               1
     1  C    0.056311
     2  C    0.014845
     3  C   -0.227917
     4  C   -0.227905
     5  C    0.056292
     6  C    0.014869
     7  C   -0.237984
     8  C   -0.237913
     9  C    0.014819
    10  C    0.056340
    11  C   -0.227919
    12  C   -0.227911
    13  C    0.014871
    14  C    0.056288
    15  C   -0.237956
    16  C   -0.237946
    17  C    0.056313
    18  C    0.014843
    19  C   -0.227917
    20  C   -0.227906
    21  C    0.056291
    22  C    0.014870
    23  C   -0.237983
    24  C   -0.237913
    25  C    0.014819
    26  C    0.056340
    27  C   -0.227919
    28  C   -0.227911
    29  C    0.014870
    30  C    0.056289
    31  C   -0.237957
    32  C   -0.237945
    33  C    0.056310
    34  C    0.014846
    35  C   -0.227917
    36  C   -0.227905
    37  C    0.056292
    38  C    0.014868
    39  C   -0.237984
    40  C   -0.237912
    41  C    0.014817
    42  C    0.056341
    43  C   -0.227919
    44  C   -0.227911
    45  C    0.014872
    46  C    0.056289
    47  C   -0.237956
    48  C   -0.237946
    49  C    0.056312
    50  C    0.014844
    51  C   -0.227917
    52  C   -0.227906
    53  C    0.056290
    54  C    0.014870
    55  C   -0.237984
    56  C   -0.237912
    57  C    0.014818
    58  C    0.056341
    59  C   -0.227919
    60  C   -0.227911
    61  C    0.014871
    62  C    0.056288
    63  C   -0.237956
    64  C   -0.237946
    65  H    0.192668
    66  H    0.192669
    67  H    0.202038
    68  H    0.202037
    69  H    0.192666
    70  H    0.192664
    71  H    0.202040
    72  H    0.202034
    73  H    0.192668
    74  H    0.192669
    75  H    0.202038
    76  H    0.202037
    77  H    0.192666
    78  H    0.192664
    79  H    0.202040
    80  H    0.202034
    81  H    0.192667
    82  H    0.192669
    83  H    0.202038
    84  H    0.202038
    85  H    0.192666
    86  H    0.192664
    87  H    0.202040
    88  H    0.202034
    89  H    0.192668
    90  H    0.192669
    91  H    0.202038
    92  H    0.202038
    93  H    0.192665
    94  H    0.192665
    95  H    0.202040
    96  H    0.202034
 Sum of Mulliken charges =  -0.00000

 Dipole moment (field-independent basis, Debye):
    X=             -0.0000    Y=             -0.0000    Z=             -0.0002  Tot=              0.0002
 Quadrupole moment (field-independent basis, Debye-Ang):
   XX=           -385.5320   YY=           -385.5320   ZZ=           -311.9286
   XY=             -0.0000   XZ=             -0.0000   YZ=              0.0000

 Normal termination of Gaussian 16 at Sun Apr 27 18:18:18 2025.
