 Gaussian 16, Revision B.01,
 Gaussian 16:  ES64L-G16RevB.01 20-Dec-2017

 ------------------------------------
 # B3LYP/6-311G* Pop=Hirshfeld NOSYMM
 ------------------------------------

 ------------------------------
 From ../B3LYP_opt/C60_1083.out
 ------------------------------
 Symbolic Z-matrix:
 Charge =  0 Multiplicity = 1

                          Input orientation:
 ---------------------------------------------------------------------
 Center     Atomic      Atomic             Coordinates (Angstroms)
 Number     Number       Type             X           Y           Z
 ---------------------------------------------------------------------
      1          6           0       -2.488936   -2.782358   -1.295245
      2          6           0       -3.302566   -2.696078   -0.110799
      3          6           0       -3.951654   -1.417176   -0.137115
      4          6           0       -3.806261   -0.866697   -1.447562
      5          6           0       -2.763131   -1.666727   -2.128907
      6          6           0       -1.143799   -3.060444   -0.896566
      7          6           0       -1.127531   -3.102058    0.576229
      8          6           0       -2.446372   -2.747769    0.995472
      9          6           0       -2.614200   -1.503599    1.753644
     10          6           0       -3.510072   -0.642794    0.986569
     11          6           0       -3.212881    0.758189    0.840449
     12          6           0       -3.592551    1.369510   -0.403922
     13          6           0       -3.814190    0.510388   -1.589345
     14          6           0       -3.063942    1.089174   -2.658767
     15          6           0       -1.911079    0.389335   -3.146961
     16          6           0       -1.683706   -0.987122   -2.791620
     17          6           0       -0.316524   -1.418660   -2.542624
     18          6           0       -0.056363   -2.457181   -1.539381
     19          6           0        1.229785   -2.493794   -0.824124
     20          6           0        1.260721   -2.564996    0.641050
     21          6           0       -0.021627   -2.656693    1.305082
     22          6           0       -0.285373   -1.792093    2.469576
     23          6           0       -1.546120   -0.992104    2.453015
     24          6           0       -1.415163    0.472566    2.556566
     25          6           0       -2.088671    1.306251    1.584335
     26          6           0       -1.295471    2.393760    1.000697
     27          6           0       -1.688545    2.927918   -0.232089
     28          6           0       -2.911814    2.529722   -0.857046
     29          6           0       -2.679764    2.416355   -2.273228
     30          6           0       -1.305754    2.572278   -2.490681
     31          6           0       -0.806335    1.343641   -3.116772
     32          6           0        0.486844    0.942593   -2.875235
     33          6           0        0.770463   -0.502702   -2.813327
     34          6           0        2.072473   -0.884767   -2.479652
     35          6           0        2.331389   -1.950580   -1.495683
     36          6           0        3.526553   -1.595574   -0.794885
     37          6           0        3.511771   -1.492204    0.620712
     38          6           0        2.392888   -2.004811    1.363431
     39          6           0        2.154862   -1.417603    2.656179
     40          6           0        0.789174   -1.270829    3.151579
     41          6           0        0.680986    0.064098    3.749366
     42          6           0       -0.275917    0.968776    3.195715
     43          6           0        0.500812    2.083113    2.624493
     44          6           0        0.122025    2.556899    1.362906
     45          6           0        1.144474    2.677417    0.317513
     46          6           0        0.666311    2.686853   -1.048141
     47          6           0       -0.669078    3.018036   -1.292161
     48          6           0        1.344846    1.841806   -2.047407
     49          6           0        2.631587    1.430931   -1.788547
     50          6           0        3.071188    0.111390   -2.254041
     51          6           0        4.028361   -0.366330   -1.351247
     52          6           0        4.153265    0.566691   -0.268923
     53          6           0        4.048157   -0.154506    0.959965
     54          6           0        3.571910    0.510816    2.076663
     55          6           0        2.862390   -0.238623    3.064666
     56          6           0        1.954007    0.646141    3.735161
     57          6           0        1.874234    1.848028    2.946964
     58          6           0        2.843757    1.789459    1.911917
     59          6           0        2.503705    2.233694    0.587830
     60          6           0        3.266452    1.671044   -0.495739
 ---------------------------------------------------------------------

 SCF Done:  E(RB3LYP) =  -2286.18986606     A.U. after   21 cycles

 Alpha  occ. eigenvalues --  -10.24270 -10.24270 -10.24269 -10.24269 -10.24233
 Alpha  occ. eigenvalues --  -10.24232 -10.24231 -10.24230 -10.24024 -10.24023
 Alpha  occ. eigenvalues --  -10.23997 -10.23997 -10.23983 -10.23983 -10.23982
 Alpha  occ. eigenvalues --  -10.23981 -10.23962 -10.23962 -10.23931 -10.23931
 Alpha  occ. eigenvalues --  -10.23840 -10.23840 -10.23839 -10.23839 -10.23668
 Alpha  occ. eigenvalues --  -10.23667 -10.23667 -10.23666 -10.23544 -10.23543
 Alpha  occ. eigenvalues --  -10.23542 -10.23542 -10.23122 -10.23122 -10.23120
 Alpha  occ. eigenvalues --  -10.23120 -10.23033 -10.23032 -10.22977 -10.22976
 Alpha  occ. eigenvalues --  -10.22867 -10.22867 -10.22866 -10.22865 -10.22858
 Alpha  occ. eigenvalues --  -10.22858 -10.22855 -10.22855 -10.22555 -10.22555
 Alpha  occ. eigenvalues --  -10.22554 -10.22554 -10.22397 -10.22396 -10.22396
 Alpha  occ. eigenvalues --  -10.22395 -10.20779 -10.20779 -10.20779 -10.20778
 Alpha  occ. eigenvalues --   -0.99357  -0.98556  -0.97573  -0.97226  -0.93634
 Alpha  occ. eigenvalues --   -0.93080  -0.92954  -0.91391  -0.90602  -0.88616
 Alpha  occ. eigenvalues --   -0.88458  -0.88228  -0.87961  -0.86729  -0.84099
 Alpha  occ. eigenvalues --   -0.83578  -0.82410  -0.82147  -0.81907  -0.81753
 Alpha  occ. eigenvalues --   -0.80347  -0.79962  -0.78538  -0.76788  -0.75631
 Alpha  occ. eigenvalues --   -0.74326  -0.74317  -0.74308  -0.73724  -0.73362
 Alpha  occ. eigenvalues --   -0.71850  -0.69806  -0.69789  -0.69422  -0.66178
 Alpha  occ. eigenvalues --   -0.66053  -0.65815  -0.65774  -0.64800  -0.63953
 Alpha  occ. eigenvalues --   -0.63754  -0.61922  -0.61017  -0.60878  -0.59951
 Alpha  occ. eigenvalues --   -0.59889  -0.57844  -0.56957  -0.56274  -0.55823
 Alpha  occ. eigenvalues --   -0.55513  -0.55039  -0.54914  -0.53987  -0.52953
 Alpha  occ. eigenvalues --   -0.52148  -0.51691  -0.51006  -0.50668  -0.50553
 Alpha  occ. eigenvalues --   -0.50523  -0.49006  -0.48691  -0.48228  -0.48181
 Alpha  occ. eigenvalues --   -0.47932  -0.47829  -0.47388  -0.47198  -0.46572
 Alpha  occ. eigenvalues --   -0.46571  -0.46570  -0.45617  -0.45615  -0.45447
 Alpha  occ. eigenvalues --   -0.43862  -0.43667  -0.43600  -0.43023  -0.42812
 Alpha  occ. eigenvalues --   -0.42317  -0.42288  -0.42211  -0.41638  -0.41615
 Alpha  occ. eigenvalues --   -0.41109  -0.40527  -0.40207  -0.40135  -0.39400
 Alpha  occ. eigenvalues --   -0.39233  -0.38726  -0.38384  -0.38369  -0.37749
 Alpha  occ. eigenvalues --   -0.37632  -0.37399  -0.37209  -0.36633  -0.36531
 Alpha  occ. eigenvalues --   -0.36134  -0.35412  -0.34942  -0.34480  -0.32937
 Alpha  occ. eigenvalues --   -0.31975  -0.30658  -0.30569  -0.30144  -0.30038
 Alpha  occ. eigenvalues --   -0.29101  -0.27992  -0.26711  -0.25876  -0.24879
 Alpha  occ. eigenvalues --   -0.23705  -0.22802  -0.22648  -0.21794  -0.21152
 Alpha virt. eigenvalues --   -0.16981  -0.16835  -0.14259  -0.09619  -0.08940
 Alpha virt. eigenvalues --   -0.08520  -0.07368  -0.07155  -0.07149  -0.06870
 Alpha virt. eigenvalues --   -0.06785  -0.05263  -0.04757  -0.03956  -0.03499

 Mulliken charges:
               1
     1  C   -0.009821
     2  C   -0.041461
     3  C   -0.001286
     4  C   -0.005214
     5  C    0.008631
     6  C   -0.003606
     7  C   -0.011551
     8  C    0.001832
     9  C    0.007423
    10  C    0.005764
    11  C    0.027614
    12  C    0.008625
    13  C   -0.005224
    14  C   -0.001272
    15  C    0.005776
    16  C    0.027593
    17  C    0.020920
    18  C   -0.004042
    19  C   -0.004102
    20  C    0.020957
    21  C    0.011219
    22  C   -0.006416
    23  C   -0.006430
    24  C    0.011189
    25  C    0.020957
    26  C   -0.004089
    27  C   -0.003594
    28  C   -0.009786
    29  C   -0.041528
    30  C    0.001900
    31  C    0.007347
    32  C   -0.006353
    33  C    0.011208
    34  C   -0.011677
    35  C   -0.003491
    36  C   -0.009949
    37  C    0.008681
    38  C    0.027615
    39  C    0.005658
    40  C    0.007485
    41  C    0.001900
    42  C   -0.011640
    43  C   -0.003582
    44  C   -0.004032
    45  C    0.020968
    46  C    0.011291
    47  C   -0.011602
    48  C   -0.006506
    49  C    0.007341
    50  C    0.002057
    51  C   -0.041468
    52  C   -0.001327
    53  C   -0.005154
    54  C   -0.005186
    55  C   -0.001292
    56  C   -0.041481
    57  C   -0.009792
    58  C    0.008613
    59  C    0.027595
    60  C    0.005793
 Sum of Mulliken charges =  -0.00000

 Dipole moment (field-independent basis, Debye):
    X=              0.0008    Y=              0.0003    Z=              0.0003  Tot=              0.0009
 Quadrupole moment (field-independent basis, Debye-Ang):
   XX=           -337.6660   YY=           -338.0740   ZZ=           -336.3482
   XY=              0.5325   XZ=             -0.5392   YZ=             -1.3108

 Normal termination of Gaussian 16 at Fri Jun  6 04:30:11 2025.
