 Gaussian 16, Revision B.01,
 Gaussian 16:  ES64L-G16RevB.01 20-Dec-2017

 ------------------------------------
 # B3LYP/6-311G* Pop=Hirshfeld NOSYMM
 ------------------------------------

 ------------------------------
 From ../B3LYP_opt/C60_1809.out
 ------------------------------
 Symbolic Z-matrix:
 Charge =  0 Multiplicity = 1

                          Input orientation:
 ---------------------------------------------------------------------
 Center     Atomic      Atomic             Coordinates (Angstroms)
 Number     Number       Type             X           Y           Z
 ---------------------------------------------------------------------
      1          6           0        2.315822    2.615861    0.728044
      2          6           0        2.315823    2.615861   -0.728043
      3          6           0        1.176997    3.027910   -1.423239
      4          6           0        0.000000    3.477448   -0.698218
      5          6           0        0.000000    3.477448    0.698219
      6          6           0        1.176997    3.027910    1.423240
      7          6           0        3.067131    1.459617    1.178823
      8          6           0        3.565707    0.759427    0.000000
      9          6           0        3.067131    1.459617   -1.178823
     10          6           0        2.623065    0.732283   -2.287783
     11          6           0        0.725540    2.278599   -2.582704
     12          6           0       -1.176997    3.027910   -1.423239
     13          6           0       -2.315822    2.615861   -0.728044
     14          6           0       -2.315823    2.615861    0.728044
     15          6           0       -1.176997    3.027910    1.423240
     16          6           0       -0.725540    2.278598    2.582704
     17          6           0        0.725540    2.278598    2.582705
     18          6           0        1.421087    1.137886    2.983554
     19          6           0        2.623065    0.732282    2.287783
     20          6           0        3.681394   -0.623143    0.000000
     21          6           0        3.260645   -1.380703    1.183488
     22          6           0        2.661192   -0.719921    2.263919
     23          6           0        1.428234   -1.220290    2.831626
     24          6           0        0.691680   -0.069838    3.337640
     25          6           0       -0.691681   -0.069838    3.337640
     26          6           0       -1.421087    1.137885    2.983553
     27          6           0       -2.623066    0.732282    2.287783
     28          6           0       -3.067131    1.459616    1.178823
     29          6           0       -0.725540    2.278598   -2.582704
     30          6           0       -3.260645   -1.380703   -1.183489
     31          6           0       -2.661192   -0.719921   -2.263919
     32          6           0       -1.428234   -1.220290   -2.831626
     33          6           0       -0.737345   -2.331058   -2.264126
     34          6           0       -1.418751   -3.027653   -1.199580
     35          6           0       -2.658954   -2.581490    0.737095
     36          6           0       -3.260645   -1.380703    1.183488
     37          6           0       -3.681394   -0.623143    0.000000
     38          6           0       -3.565707    0.759427    0.000000
     39          6           0       -3.067131    1.459617   -1.178823
     40          6           0       -2.623065    0.732283   -2.287783
     41          6           0       -0.691680   -0.069837   -3.337640
     42          6           0        0.691681   -0.069837   -3.337640
     43          6           0        1.428234   -1.220290   -2.831626
     44          6           0        0.737346   -2.331058   -2.264126
     45          6           0        1.418751   -3.027653   -1.199580
     46          6           0       -0.676548   -3.456136    0.000000
     47          6           0        0.676548   -3.456136    0.000000
     48          6           0       -1.418751   -3.027653    1.199580
     49          6           0       -2.661192   -0.719921    2.263919
     50          6           0       -1.428234   -1.220290    2.831625
     51          6           0       -0.737346   -2.331058    2.264125
     52          6           0        0.737345   -2.331058    2.264125
     53          6           0        1.418751   -3.027653    1.199580
     54          6           0        2.658954   -2.581490    0.737095
     55          6           0        2.658954   -2.581489   -0.737095
     56          6           0        3.260645   -1.380703   -1.183488
     57          6           0        2.661192   -0.719921   -2.263919
     58          6           0       -1.421087    1.137886   -2.983553
     59          6           0        1.421087    1.137886   -2.983553
     60          6           0       -2.658954   -2.581489   -0.737095
 ---------------------------------------------------------------------

 SCF Done:  E(RB3LYP) =  -2286.52825115     A.U. after   18 cycles

 Alpha  occ. eigenvalues --  -10.24053 -10.24053 -10.24023 -10.24023 -10.23256
 Alpha  occ. eigenvalues --  -10.23256 -10.23102 -10.23101 -10.23100 -10.23100
 Alpha  occ. eigenvalues --  -10.22961 -10.22955 -10.22955 -10.22946 -10.22946
 Alpha  occ. eigenvalues --  -10.22897 -10.22894 -10.22894 -10.22892 -10.22867
 Alpha  occ. eigenvalues --  -10.22849 -10.22849 -10.22844 -10.22828 -10.22822
 Alpha  occ. eigenvalues --  -10.22820 -10.22816 -10.22815 -10.22813 -10.22810
 Alpha  occ. eigenvalues --  -10.22808 -10.22808 -10.22805 -10.22803 -10.22785
 Alpha  occ. eigenvalues --  -10.22784 -10.22760 -10.22760 -10.22729 -10.22729
 Alpha  occ. eigenvalues --  -10.22714 -10.22714 -10.22714 -10.22714 -10.22700
 Alpha  occ. eigenvalues --  -10.22700 -10.22671 -10.22671 -10.22655 -10.22655
 Alpha  occ. eigenvalues --  -10.22627 -10.22627 -10.22608 -10.22608 -10.22605
 Alpha  occ. eigenvalues --  -10.22605 -10.21991 -10.21991 -10.21961 -10.21960
 Alpha  occ. eigenvalues --   -0.98448  -0.96836  -0.96541  -0.96162  -0.93544
 Alpha  occ. eigenvalues --   -0.92762  -0.92652  -0.92405  -0.91687  -0.88775
 Alpha  occ. eigenvalues --   -0.88483  -0.86969  -0.86838  -0.85562  -0.85459
 Alpha  occ. eigenvalues --   -0.85377  -0.81447  -0.80558  -0.80363  -0.80281
 Alpha  occ. eigenvalues --   -0.79345  -0.79212  -0.78868  -0.78780  -0.77943
 Alpha  occ. eigenvalues --   -0.73896  -0.73463  -0.73422  -0.72737  -0.72609
 Alpha  occ. eigenvalues --   -0.72116  -0.71295  -0.70101  -0.69136  -0.66981
 Alpha  occ. eigenvalues --   -0.66887  -0.65454  -0.63966  -0.63892  -0.63731
 Alpha  occ. eigenvalues --   -0.63369  -0.63216  -0.63163  -0.61351  -0.59790
 Alpha  occ. eigenvalues --   -0.58964  -0.57345  -0.57141  -0.56317  -0.54972
 Alpha  occ. eigenvalues --   -0.54891  -0.54696  -0.54448  -0.53422  -0.53093
 Alpha  occ. eigenvalues --   -0.52433  -0.51589  -0.50825  -0.50231  -0.50059
 Alpha  occ. eigenvalues --   -0.49552  -0.48837  -0.48176  -0.48056  -0.47497
 Alpha  occ. eigenvalues --   -0.47350  -0.47159  -0.46940  -0.46508  -0.46087
 Alpha  occ. eigenvalues --   -0.45968  -0.45731  -0.45417  -0.44836  -0.44763
 Alpha  occ. eigenvalues --   -0.44344  -0.44033  -0.43478  -0.43227  -0.43205
 Alpha  occ. eigenvalues --   -0.43004  -0.42688  -0.42684  -0.42554  -0.42142
 Alpha  occ. eigenvalues --   -0.41982  -0.41247  -0.41222  -0.40789  -0.38138
 Alpha  occ. eigenvalues --   -0.37798  -0.37748  -0.37644  -0.37343  -0.37154
 Alpha  occ. eigenvalues --   -0.36725  -0.36615  -0.36496  -0.36465  -0.36227
 Alpha  occ. eigenvalues --   -0.36194  -0.35941  -0.35729  -0.35374  -0.35104
 Alpha  occ. eigenvalues --   -0.34924  -0.29787  -0.28702  -0.28640  -0.28583
 Alpha  occ. eigenvalues --   -0.28547  -0.28465  -0.28388  -0.28369  -0.26723
 Alpha  occ. eigenvalues --   -0.23785  -0.23698  -0.23572  -0.23343  -0.22470
 Alpha virt. eigenvalues --   -0.15365  -0.13487  -0.12194  -0.10325  -0.09484
 Alpha virt. eigenvalues --   -0.07502  -0.06596  -0.06420  -0.05262  -0.05180
 Alpha virt. eigenvalues --   -0.05078  -0.04513  -0.04295  -0.03247  -0.00654

 Mulliken charges:
               1
     1  C   -0.001294
     2  C   -0.001293
     3  C    0.000627
     4  C   -0.000195
     5  C   -0.000195
     6  C    0.000628
     7  C    0.001364
     8  C   -0.004160
     9  C    0.001364
    10  C    0.002760
    11  C    0.000995
    12  C    0.000628
    13  C   -0.001294
    14  C   -0.001294
    15  C    0.000627
    16  C    0.000996
    17  C    0.000995
    18  C    0.000433
    19  C    0.002759
    20  C    0.001701
    21  C    0.006869
    22  C   -0.004485
    23  C   -0.005329
    24  C   -0.003221
    25  C   -0.003220
    26  C    0.000432
    27  C    0.002760
    28  C    0.001364
    29  C    0.000995
    30  C    0.006869
    31  C   -0.004486
    32  C   -0.005329
    33  C    0.025402
    34  C    0.003756
    35  C   -0.023116
    36  C    0.006869
    37  C    0.001700
    38  C   -0.004159
    39  C    0.001364
    40  C    0.002759
    41  C   -0.003221
    42  C   -0.003220
    43  C   -0.005329
    44  C    0.025403
    45  C    0.003756
    46  C   -0.006868
    47  C   -0.006868
    48  C    0.003756
    49  C   -0.004486
    50  C   -0.005330
    51  C    0.025403
    52  C    0.025401
    53  C    0.003756
    54  C   -0.023116
    55  C   -0.023116
    56  C    0.006869
    57  C   -0.004486
    58  C    0.000433
    59  C    0.000432
    60  C   -0.023116
 Sum of Mulliken charges =  -0.00000

 Dipole moment (field-independent basis, Debye):
    X=             -0.0000    Y=              0.0839    Z=              0.0000  Tot=              0.0839
 Quadrupole moment (field-independent basis, Debye-Ang):
   XX=           -335.0986   YY=           -335.3460   ZZ=           -335.3058
   XY=             -0.0000   XZ=             -0.0000   YZ=             -0.0000

 Normal termination of Gaussian 16 at Fri Jun  6 05:47:35 2025.
