 Gaussian 16, Revision B.01,
 Gaussian 16:  ES64L-G16RevB.01 20-Dec-2017

 ------------------------------------
 # B3LYP/6-311G* Pop=Hirshfeld NOSYMM
 ------------------------------------

 ------------------------------
 From ../B3LYP_opt/C60_0100.out
 ------------------------------
 Symbolic Z-matrix:
 Charge =  0 Multiplicity = 1

                          Input orientation:
 ---------------------------------------------------------------------
 Center     Atomic      Atomic             Coordinates (Angstroms)
 Number     Number       Type             X           Y           Z
 ---------------------------------------------------------------------
      1          6           0       -4.448485   -0.943414    0.264978
      2          6           0       -4.706011    0.067187    1.282558
      3          6           0       -4.662238    1.358479    0.691718
      4          6           0       -4.327968    1.164071   -0.656303
      5          6           0       -4.218619   -0.281218   -0.972594
      6          6           0       -3.452855   -1.858415    0.766657
      7          6           0       -2.911320   -1.279951    2.012040
      8          6           0       -3.643378   -0.040599    2.206752
      9          6           0       -2.920684    1.229258    2.272381
     10          6           0       -3.499492    2.065076    1.274067
     11          6           0       -2.645465    2.565348    0.257267
     12          6           0       -3.212992    2.025166   -0.995280
     13          6           0       -2.335655    1.613930   -1.957167
     14          6           0       -2.381916    0.264707   -2.519435
     15          6           0       -3.174621   -0.731157   -1.850781
     16          6           0       -2.457137   -1.937469   -1.483938
     17          6           0       -2.541329   -2.403873   -0.104935
     18          6           0       -1.190277   -2.723686    0.323501
     19          6           0       -0.646296   -2.236696    1.529397
     20          6           0       -1.547940   -1.328885    2.288839
     21          6           0       -0.933690   -0.090979    2.797021
     22          6           0       -1.533242    1.197566    2.441766
     23          6           0       -0.686139    2.096049    1.672311
     24          6           0       -1.230661    2.610836    0.439930
     25          6           0       -0.345072    2.527806   -0.736204
     26          6           0       -0.943176    2.042017   -1.925595
     27          6           0       -0.213789    1.148580   -2.753086
     28          6           0       -1.072622   -0.012608   -2.975037
     29          6           0       -0.472622   -1.304478   -2.808684
     30          6           0       -1.140840   -2.200098   -1.931575
     31          6           0       -0.352652   -2.782680   -0.824997
     32          6           0        1.048596   -2.687369   -0.745764
     33          6           0        1.698354   -2.430585    0.539398
     34          6           0        0.796455   -2.144592    1.652809
     35          6           0        1.276320   -1.248014    2.667334
     36          6           0        0.410168   -0.101440    3.007003
     37          6           0        1.211027    1.097030    2.819624
     38          6           0        0.741245    2.026909    1.850192
     39          6           0        1.662037    2.385159    0.758038
     40          6           0        1.103230    2.407990   -0.594208
     41          6           0        1.891703    1.867670   -1.706439
     42          6           0        1.184074    1.061805   -2.711070
     43          6           0        1.730368   -0.217853   -3.092563
     44          6           0        0.928249   -1.375005   -2.877309
     45          6           0        1.703183   -2.252806   -1.964240
     46          6           0        3.016033   -1.835349   -1.944647
     47          6           0        3.744786   -1.650740   -0.719165
     48          6           0        3.107661   -1.936550    0.556501
     49          6           0        3.538944   -1.119407    1.668931
     50          6           0        2.581103   -0.800907    2.685976
     51          6           0        2.555152    0.671603    2.855030
     52          6           0        3.492618    1.205406    2.013814
     53          6           0        3.055956    2.083312    0.929213
     54          6           0        3.824496    1.710257   -0.198030
     55          6           0        3.277059    1.559061   -1.481169
     56          6           0        3.835317    0.311659   -2.007918
     57          6           0        3.058320   -0.564328   -2.699740
     58          6           0        4.482626   -0.422162   -0.892321
     59          6           0        4.604884    0.475316    0.153248
     60          6           0        4.289217    0.104060    1.451899
 ---------------------------------------------------------------------

 SCF Done:  E(RB3LYP) =  -2286.21028601     A.U. after   25 cycles

 Alpha  occ. eigenvalues --  -10.25396 -10.25036 -10.24755 -10.24682 -10.24610
 Alpha  occ. eigenvalues --  -10.24495 -10.24381 -10.24274 -10.24216 -10.24188
 Alpha  occ. eigenvalues --  -10.24166 -10.24128 -10.24076 -10.24024 -10.23908
 Alpha  occ. eigenvalues --  -10.23864 -10.23732 -10.23655 -10.23556 -10.23535
 Alpha  occ. eigenvalues --  -10.23516 -10.23514 -10.23501 -10.23499 -10.23475
 Alpha  occ. eigenvalues --  -10.23464 -10.23460 -10.23382 -10.23232 -10.23228
 Alpha  occ. eigenvalues --  -10.23175 -10.23115 -10.23053 -10.23047 -10.23010
 Alpha  occ. eigenvalues --  -10.23005 -10.22997 -10.22994 -10.22956 -10.22936
 Alpha  occ. eigenvalues --  -10.22864 -10.22804 -10.22777 -10.22771 -10.22760
 Alpha  occ. eigenvalues --  -10.22754 -10.22684 -10.22617 -10.22591 -10.22545
 Alpha  occ. eigenvalues --  -10.22513 -10.22215 -10.22136 -10.22015 -10.21684
 Alpha  occ. eigenvalues --  -10.21569 -10.21468 -10.21207 -10.21178 -10.21142
 Alpha  occ. eigenvalues --   -0.99757  -0.98495  -0.96712  -0.95703  -0.95286
 Alpha  occ. eigenvalues --   -0.93631  -0.92551  -0.91249  -0.90313  -0.89399
 Alpha  occ. eigenvalues --   -0.89108  -0.88160  -0.86560  -0.86318  -0.84485
 Alpha  occ. eigenvalues --   -0.83402  -0.82945  -0.82291  -0.82011  -0.81243
 Alpha  occ. eigenvalues --   -0.80310  -0.78464  -0.77590  -0.77410  -0.76217
 Alpha  occ. eigenvalues --   -0.75217  -0.75002  -0.74585  -0.73864  -0.72694
 Alpha  occ. eigenvalues --   -0.70948  -0.69899  -0.69583  -0.68408  -0.67423
 Alpha  occ. eigenvalues --   -0.66179  -0.65904  -0.65410  -0.65185  -0.63991
 Alpha  occ. eigenvalues --   -0.63314  -0.61834  -0.61483  -0.60360  -0.60147
 Alpha  occ. eigenvalues --   -0.59433  -0.58398  -0.57438  -0.56728  -0.55629
 Alpha  occ. eigenvalues --   -0.55181  -0.54656  -0.54084  -0.53337  -0.52842
 Alpha  occ. eigenvalues --   -0.52681  -0.51690  -0.51227  -0.50414  -0.50368
 Alpha  occ. eigenvalues --   -0.50077  -0.49509  -0.49343  -0.48564  -0.48370
 Alpha  occ. eigenvalues --   -0.48013  -0.47718  -0.47179  -0.46365  -0.46363
 Alpha  occ. eigenvalues --   -0.46055  -0.45902  -0.45115  -0.45021  -0.44881
 Alpha  occ. eigenvalues --   -0.44770  -0.44428  -0.44034  -0.43565  -0.43263
 Alpha  occ. eigenvalues --   -0.42750  -0.42535  -0.42111  -0.41811  -0.41444
 Alpha  occ. eigenvalues --   -0.40643  -0.40633  -0.40046  -0.39845  -0.39393
 Alpha  occ. eigenvalues --   -0.39216  -0.38937  -0.38749  -0.38048  -0.37817
 Alpha  occ. eigenvalues --   -0.37651  -0.36800  -0.36331  -0.36163  -0.35835
 Alpha  occ. eigenvalues --   -0.35466  -0.35399  -0.34981  -0.34797  -0.32617
 Alpha  occ. eigenvalues --   -0.32206  -0.31265  -0.31041  -0.30726  -0.30098
 Alpha  occ. eigenvalues --   -0.28576  -0.26818  -0.26280  -0.25900  -0.24863
 Alpha  occ. eigenvalues --   -0.23816  -0.23589  -0.23423  -0.22671  -0.20935
 Alpha virt. eigenvalues --   -0.16625  -0.15338  -0.13786  -0.09676  -0.09173
 Alpha virt. eigenvalues --   -0.08498  -0.08049  -0.07337  -0.07198  -0.06139
 Alpha virt. eigenvalues --   -0.05655  -0.04830  -0.04573  -0.04325  -0.03258

 Mulliken charges:
               1
     1  C   -0.007274
     2  C   -0.017549
     3  C   -0.045713
     4  C    0.017011
     5  C   -0.005920
     6  C    0.009502
     7  C   -0.005525
     8  C    0.030220
     9  C    0.002539
    10  C    0.004084
    11  C   -0.010990
    12  C    0.015478
    13  C   -0.021758
    14  C   -0.011963
    15  C    0.032494
    16  C   -0.001986
    17  C   -0.021060
    18  C    0.013037
    19  C    0.020715
    20  C    0.023253
    21  C    0.012597
    22  C    0.001606
    23  C   -0.024670
    24  C    0.040145
    25  C    0.002806
    26  C    0.014304
    27  C   -0.029157
    28  C    0.005522
    29  C    0.037713
    30  C   -0.006502
    31  C   -0.019736
    32  C    0.016719
    33  C    0.006871
    34  C   -0.002604
    35  C    0.011653
    36  C   -0.043896
    37  C    0.023058
    38  C    0.004753
    39  C    0.032055
    40  C   -0.009395
    41  C    0.021113
    42  C    0.013441
    43  C    0.012020
    44  C   -0.034749
    45  C    0.010071
    46  C   -0.038363
    47  C    0.016028
    48  C    0.024809
    49  C    0.007099
    50  C   -0.024476
    51  C   -0.030001
    52  C    0.001370
    53  C   -0.004719
    54  C   -0.001630
    55  C   -0.003995
    56  C    0.013046
    57  C   -0.018781
    58  C   -0.021421
    59  C   -0.001840
    60  C   -0.031460
 Sum of Mulliken charges =  -0.00000

 Dipole moment (field-independent basis, Debye):
    X=             -1.1277    Y=              0.1533    Z=              0.0344  Tot=              1.1386
 Quadrupole moment (field-independent basis, Debye-Ang):
   XX=           -339.6858   YY=           -336.0862   ZZ=           -335.4449
   XY=              2.4648   XZ=             -1.9579   YZ=             -0.9650

 Normal termination of Gaussian 16 at Thu Jun  5 19:22:23 2025.
