 Gaussian 16, Revision B.01,
 Gaussian 16:  ES64L-G16RevB.01 20-Dec-2017

 ------------------------------------
 # B3LYP/6-311G* Pop=Hirshfeld NOSYMM
 ------------------------------------

 ------------------------------
 From ../B3LYP_opt/C60_1812.out
 ------------------------------
 Symbolic Z-matrix:
 Charge =  0 Multiplicity = 1

                          Input orientation:
 ---------------------------------------------------------------------
 Center     Atomic      Atomic             Coordinates (Angstroms)
 Number     Number       Type             X           Y           Z
 ---------------------------------------------------------------------
      1          6           0        0.726682   -1.000201    3.327306
      2          6           0        1.175847    0.382065    3.327388
      3          6           0        1.424340   -1.960465    2.593896
      4          6           0        2.304758    0.748829    2.593967
      5          6           0        2.304751    1.985181    1.829844
      6          6           0        0.000000    1.236379    3.327397
      7          6           0        0.000000    2.423208    2.593861
      8          6           0        1.175873    2.805238    1.829770
      9          6           0       -0.697674   -2.960903    1.829932
     10          6           0       -1.424340   -1.960465    2.593896
     11          6           0        0.697674   -2.960903    1.829932
     12          6           0       -0.726682   -1.000201    3.327306
     13          6           0       -1.175847    0.382065    3.327388
     14          6           0       -2.600298   -1.578454    1.829882
     15          6           0       -3.031497   -0.251454    1.829882
     16          6           0       -2.304758    0.748829    2.593967
     17          6           0        0.726699   -3.423354   -0.593413
     18          6           0       -0.726699   -3.423354   -0.593413
     19          6           0        1.424323   -3.196757    0.593475
     20          6           0       -1.424323   -3.196757    0.593475
     21          6           0       -2.600149   -2.342416    0.593450
     22          6           0       -1.175873   -2.805238   -1.829770
     23          6           0       -2.304751   -1.985181   -1.829844
     24          6           0       -3.031397   -1.749021   -0.593443
     25          6           0        3.031397   -1.749021   -0.593443
     26          6           0        2.304751   -1.985181   -1.829844
     27          6           0        2.600149   -2.342416    0.593450
     28          6           0        1.175873   -2.805238   -1.829770
     29          6           0        0.000000   -2.423208   -2.593861
     30          6           0        2.304758   -0.748829   -2.593967
     31          6           0        1.175847   -0.382065   -3.327388
     32          6           0        0.000000   -1.236379   -3.327397
     33          6           0        3.031497   -0.251454    1.829882
     34          6           0        3.480634    0.366757    0.593485
     35          6           0        2.600298   -1.578454    1.829883
     36          6           0        3.480634   -0.366757   -0.593485
     37          6           0        3.031496    0.251454   -1.829882
     38          6           0        3.031397    1.749021    0.593443
     39          6           0        2.600149    2.342416   -0.593450
     40          6           0        2.600298    1.578454   -1.829882
     41          6           0       -0.726682    1.000201   -3.327306
     42          6           0        0.726682    1.000201   -3.327306
     43          6           0        1.424340    1.960465   -2.593896
     44          6           0       -1.424340    1.960465   -2.593896
     45          6           0       -3.031496    0.251454   -1.829882
     46          6           0       -2.304758   -0.748829   -2.593967
     47          6           0       -1.175847   -0.382065   -3.327388
     48          6           0       -2.600298    1.578454   -1.829882
     49          6           0       -3.031397    1.749021    0.593443
     50          6           0       -3.480634    0.366757    0.593485
     51          6           0       -3.480634   -0.366757   -0.593485
     52          6           0       -2.600149    2.342416   -0.593450
     53          6           0       -0.726699    3.423354    0.593413
     54          6           0       -1.175873    2.805238    1.829770
     55          6           0       -2.304751    1.985181    1.829844
     56          6           0       -1.424323    3.196757   -0.593475
     57          6           0        0.697674    2.960903   -1.829932
     58          6           0        1.424323    3.196757   -0.593475
     59          6           0        0.726699    3.423354    0.593413
     60          6           0       -0.697674    2.960903   -1.829932
 ---------------------------------------------------------------------

 SCF Done:  E(RB3LYP) =  -2286.59029819     A.U. after   14 cycles

 Alpha  occ. eigenvalues --  -10.22841 -10.22839 -10.22839 -10.22838 -10.22833
 Alpha  occ. eigenvalues --  -10.22832 -10.22832 -10.22832 -10.22831 -10.22823
 Alpha  occ. eigenvalues --  -10.22823 -10.22823 -10.22822 -10.22822 -10.22822
 Alpha  occ. eigenvalues --  -10.22821 -10.22814 -10.22813 -10.22813 -10.22813
 Alpha  occ. eigenvalues --  -10.22811 -10.22811 -10.22810 -10.22810 -10.22810
 Alpha  occ. eigenvalues --  -10.22806 -10.22806 -10.22806 -10.22806 -10.22806
 Alpha  occ. eigenvalues --  -10.22777 -10.22777 -10.22776 -10.22773 -10.22773
 Alpha  occ. eigenvalues --  -10.22773 -10.22762 -10.22761 -10.22761 -10.22761
 Alpha  occ. eigenvalues --  -10.22761 -10.22758 -10.22758 -10.22758 -10.22754
 Alpha  occ. eigenvalues --  -10.22754 -10.22754 -10.22753 -10.22753 -10.22744
 Alpha  occ. eigenvalues --  -10.22744 -10.22744 -10.22744 -10.22732 -10.22732
 Alpha  occ. eigenvalues --  -10.22731 -10.22731 -10.22731 -10.22731 -10.22731
 Alpha  occ. eigenvalues --   -0.98348  -0.96375  -0.96374  -0.96374  -0.92589
 Alpha  occ. eigenvalues --   -0.92589  -0.92588  -0.92588  -0.92588  -0.88592
 Alpha  occ. eigenvalues --   -0.88592  -0.88592  -0.85437  -0.85436  -0.85436
 Alpha  occ. eigenvalues --   -0.85436  -0.80376  -0.80376  -0.80375  -0.80375
 Alpha  occ. eigenvalues --   -0.80375  -0.78701  -0.78701  -0.78701  -0.78700
 Alpha  occ. eigenvalues --   -0.73052  -0.73052  -0.73052  -0.73052  -0.73051
 Alpha  occ. eigenvalues --   -0.71692  -0.71692  -0.71692  -0.67472  -0.67472
 Alpha  occ. eigenvalues --   -0.67472  -0.63799  -0.63799  -0.63799  -0.63798
 Alpha  occ. eigenvalues --   -0.63798  -0.63394  -0.63393  -0.63393  -0.61066
 Alpha  occ. eigenvalues --   -0.56816  -0.56816  -0.56816  -0.56815  -0.54401
 Alpha  occ. eigenvalues --   -0.54399  -0.54399  -0.54399  -0.54398  -0.52873
 Alpha  occ. eigenvalues --   -0.52873  -0.52872  -0.50362  -0.50362  -0.50362
 Alpha  occ. eigenvalues --   -0.49457  -0.47785  -0.47785  -0.47784  -0.47784
 Alpha  occ. eigenvalues --   -0.47107  -0.47107  -0.47106  -0.45910  -0.45910
 Alpha  occ. eigenvalues --   -0.45909  -0.45909  -0.45909  -0.44587  -0.44587
 Alpha  occ. eigenvalues --   -0.44586  -0.44586  -0.43398  -0.43398  -0.43397
 Alpha  occ. eigenvalues --   -0.42645  -0.42645  -0.42645  -0.42645  -0.42645
 Alpha  occ. eigenvalues --   -0.41585  -0.41585  -0.41585  -0.41584  -0.37418
 Alpha  occ. eigenvalues --   -0.37418  -0.37418  -0.37418  -0.37417  -0.37210
 Alpha  occ. eigenvalues --   -0.37210  -0.37210  -0.36284  -0.36283  -0.36283
 Alpha  occ. eigenvalues --   -0.36283  -0.36283  -0.35287  -0.35286  -0.35286
 Alpha  occ. eigenvalues --   -0.35285  -0.28551  -0.28549  -0.28549  -0.28549
 Alpha  occ. eigenvalues --   -0.28548  -0.28427  -0.28427  -0.28426  -0.28426
 Alpha  occ. eigenvalues --   -0.23527  -0.23527  -0.23527  -0.23527  -0.23526
 Alpha virt. eigenvalues --   -0.13511  -0.13510  -0.13508  -0.09079  -0.09077
 Alpha virt. eigenvalues --   -0.09076  -0.05325  -0.05324  -0.05324  -0.04774
 Alpha virt. eigenvalues --   -0.04773  -0.04773  -0.04773  -0.04773   0.01361

 Mulliken charges:
               1
     1  C    0.000071
     2  C   -0.000049
     3  C    0.000025
     4  C    0.000010
     5  C   -0.000009
     6  C    0.000012
     7  C    0.000026
     8  C   -0.000018
     9  C   -0.000066
    10  C    0.000025
    11  C   -0.000066
    12  C    0.000071
    13  C   -0.000049
    14  C   -0.000026
    15  C   -0.000025
    16  C    0.000011
    17  C    0.000019
    18  C    0.000019
    19  C    0.000010
    20  C    0.000010
    21  C    0.000045
    22  C   -0.000018
    23  C   -0.000009
    24  C    0.000034
    25  C    0.000034
    26  C   -0.000009
    27  C    0.000045
    28  C   -0.000018
    29  C    0.000026
    30  C    0.000010
    31  C   -0.000049
    32  C    0.000013
    33  C   -0.000025
    34  C   -0.000040
    35  C   -0.000026
    36  C   -0.000040
    37  C   -0.000026
    38  C    0.000034
    39  C    0.000046
    40  C   -0.000025
    41  C    0.000071
    42  C    0.000071
    43  C    0.000025
    44  C    0.000025
    45  C   -0.000026
    46  C    0.000011
    47  C   -0.000049
    48  C   -0.000026
    49  C    0.000034
    50  C   -0.000040
    51  C   -0.000040
    52  C    0.000045
    53  C    0.000019
    54  C   -0.000018
    55  C   -0.000009
    56  C    0.000010
    57  C   -0.000066
    58  C    0.000010
    59  C    0.000019
    60  C   -0.000066
 Sum of Mulliken charges =  -0.00000

 Dipole moment (field-independent basis, Debye):
    X=             -0.0000    Y=              0.0000    Z=             -0.0000  Tot=              0.0000
 Quadrupole moment (field-independent basis, Debye-Ang):
   XX=           -334.9447   YY=           -334.9404   ZZ=           -334.9383
   XY=              0.0000   XZ=              0.0000   YZ=              0.0001

 Normal termination of Gaussian 16 at Fri Jun  6 05:49:32 2025.
