 Gaussian 16, Revision B.01,
 Gaussian 16:  ES64L-G16RevB.01 20-Dec-2017

 ------------------------------------
 # B3LYP/6-311G* Pop=Hirshfeld NOSYMM
 ------------------------------------

 ------------------------------
 From ../B3LYP_opt/C60_1811.out
 ------------------------------
 Symbolic Z-matrix:
 Charge =  0 Multiplicity = 1

                          Input orientation:
 ---------------------------------------------------------------------
 Center     Atomic      Atomic             Coordinates (Angstroms)
 Number     Number       Type             X           Y           Z
 ---------------------------------------------------------------------
      1          6           0       -3.507651   -0.984283    0.304402
      2          6           0       -3.544852   -0.622553   -1.126187
      3          6           0       -2.650797   -1.441053   -1.820926
      4          6           0       -2.229678   -2.466726   -0.862065
      5          6           0       -2.668120   -2.072682    0.490759
      6          6           0       -3.429130    0.208285    1.071656
      7          6           0       -3.554102    1.326850    0.141444
      8          6           0       -3.550258    0.789112   -1.222287
      9          6           0       -2.759460    1.373094   -2.216298
     10          6           0       -1.883411    0.526302   -3.021108
     11          6           0       -1.703016   -0.868185   -2.749384
     12          6           0       -0.351281   -1.441364   -2.820158
     13          6           0       -0.133121   -2.678864   -2.112463
     14          6           0       -1.052558   -3.100666   -1.038032
     15          6           0       -0.268906   -3.511466    0.130698
     16          6           0       -0.560534   -2.971366    1.439055
     17          6           0       -1.751582   -2.125585    1.602941
     18          6           0       -1.737012   -0.968317    2.490129
     19          6           0       -2.527591    0.232600    2.184170
     20          6           0       -1.967193    1.528435    2.492822
     21          6           0       -2.173904    2.611886    1.635275
     22          6           0       -2.868071    2.515875    0.406082
     23          6           0       -2.035202    3.143218   -0.624265
     24          6           0       -2.044460    2.617919   -1.919763
     25          6           0       -0.816537    2.584620   -2.621931
     26          6           0       -0.733355    1.296893   -3.338589
     27          6           0        0.561948    0.805371   -3.269713
     28          6           0        0.816837   -0.592371   -3.022562
     29          6           0        2.115191   -0.932173   -2.422958
     30          6           0        2.263189   -2.185783   -1.746520
     31          6           0        1.133114   -3.043331   -1.678957
     32          6           0        1.050807   -3.607944   -0.317599
     33          6           0        2.164098   -3.140230    0.419870
     34          6           0        1.945896   -2.753095    1.745389
     35          6           0        0.582620   -2.732770    2.268130
     36          6           0        0.511960   -1.672445    3.210425
     37          6           0       -0.545240   -0.777058    3.279293
     38          6           0        0.076115    0.556922    3.388795
     39          6           0       -0.581671    1.651446    2.955410
     40          6           0        0.113898    2.661835    2.134983
     41          6           0       -0.877637    3.269920    1.379224
     42          6           0       -0.762169    3.517002   -0.014575
     43          6           0        0.497040    3.248842   -0.641935
     44          6           0        0.420286    2.850883   -2.029131
     45          6           0        1.340079    1.845252   -2.569085
     46          6           0        2.447873    1.514020   -1.875121
     47          6           0        2.949336    0.137456   -1.924302
     48          6           0        3.694678   -0.032247   -0.754834
     49          6           0        3.644166   -1.199537    0.043195
     50          6           0        2.973962   -2.310602   -0.477192
     51          6           0        3.428821   -0.779512    1.431032
     52          6           0        2.654484   -1.583302    2.272939
     53          6           0        1.789748   -0.933866    3.185315
     54          6           0        1.517481    0.436056    3.150724
     55          6           0        2.178942    1.290288    2.190885
     56          6           0        1.413045    2.382967    1.574389
     57          6           0        1.609862    2.744523    0.175459
     58          6           0        2.670688    2.061435   -0.522929
     59          6           0        3.473582    1.133244    0.123535
     60          6           0        3.228752    0.666829    1.442445
 ---------------------------------------------------------------------

 SCF Done:  E(RB3LYP) =  -2286.39730746     A.U. after   18 cycles

 Alpha  occ. eigenvalues --  -10.24253 -10.24253 -10.24252 -10.24220 -10.24219
 Alpha  occ. eigenvalues --  -10.24219 -10.24061 -10.24061 -10.24060 -10.24060
 Alpha  occ. eigenvalues --  -10.24059 -10.24059 -10.23141 -10.23141 -10.23141
 Alpha  occ. eigenvalues --  -10.23140 -10.23140 -10.23140 -10.23004 -10.23004
 Alpha  occ. eigenvalues --  -10.23004 -10.23003 -10.23002 -10.23002 -10.22877
 Alpha  occ. eigenvalues --  -10.22876 -10.22876 -10.22875 -10.22874 -10.22874
 Alpha  occ. eigenvalues --  -10.22868 -10.22867 -10.22867 -10.22799 -10.22798
 Alpha  occ. eigenvalues --  -10.22798 -10.22766 -10.22765 -10.22765 -10.22760
 Alpha  occ. eigenvalues --  -10.22759 -10.22759 -10.22569 -10.22569 -10.22568
 Alpha  occ. eigenvalues --  -10.22568 -10.22565 -10.22565 -10.22115 -10.22115
 Alpha  occ. eigenvalues --  -10.22115 -10.22114 -10.22114 -10.22113 -10.22021
 Alpha  occ. eigenvalues --  -10.22021 -10.22020 -10.22020 -10.22019 -10.22019
 Alpha  occ. eigenvalues --   -0.98634  -0.97248  -0.96532  -0.96532  -0.94285
 Alpha  occ. eigenvalues --   -0.94284  -0.92290  -0.90846  -0.90845  -0.88173
 Alpha  occ. eigenvalues --   -0.88173  -0.87958  -0.86723  -0.86722  -0.85364
 Alpha  occ. eigenvalues --   -0.84398  -0.81916  -0.81916  -0.80603  -0.79643
 Alpha  occ. eigenvalues --   -0.79643  -0.79546  -0.78987  -0.77468  -0.77468
 Alpha  occ. eigenvalues --   -0.74273  -0.74273  -0.73552  -0.73015  -0.73015
 Alpha  occ. eigenvalues --   -0.72521  -0.70035  -0.70035  -0.67419  -0.67418
 Alpha  occ. eigenvalues --   -0.66901  -0.65018  -0.65018  -0.64606  -0.64325
 Alpha  occ. eigenvalues --   -0.64324  -0.62246  -0.61315  -0.61314  -0.58700
 Alpha  occ. eigenvalues --   -0.58700  -0.57629  -0.56758  -0.56613  -0.55017
 Alpha  occ. eigenvalues --   -0.55017  -0.54527  -0.54527  -0.54359  -0.54148
 Alpha  occ. eigenvalues --   -0.51710  -0.51709  -0.50221  -0.49960  -0.49831
 Alpha  occ. eigenvalues --   -0.49831  -0.49161  -0.49159  -0.47627  -0.47384
 Alpha  occ. eigenvalues --   -0.47383  -0.47259  -0.47259  -0.46755  -0.46754
 Alpha  occ. eigenvalues --   -0.45703  -0.45702  -0.45632  -0.45530  -0.45042
 Alpha  occ. eigenvalues --   -0.43648  -0.43647  -0.43329  -0.43328  -0.43238
 Alpha  occ. eigenvalues --   -0.42655  -0.42655  -0.42228  -0.42053  -0.42053
 Alpha  occ. eigenvalues --   -0.41776  -0.40563  -0.40453  -0.40452  -0.38653
 Alpha  occ. eigenvalues --   -0.38653  -0.37714  -0.37713  -0.37171  -0.37170
 Alpha  occ. eigenvalues --   -0.36868  -0.36682  -0.36602  -0.36601  -0.36405
 Alpha  occ. eigenvalues --   -0.36405  -0.35558  -0.35501  -0.35500  -0.34537
 Alpha  occ. eigenvalues --   -0.34042  -0.30146  -0.30145  -0.28657  -0.28657
 Alpha  occ. eigenvalues --   -0.28637  -0.28534  -0.28063  -0.26756  -0.26756
 Alpha  occ. eigenvalues --   -0.23976  -0.23976  -0.23596  -0.21729  -0.21729
 Alpha virt. eigenvalues --   -0.17024  -0.13100  -0.13099  -0.09647  -0.09647
 Alpha virt. eigenvalues --   -0.07127  -0.07127  -0.06935  -0.06294  -0.06293
 Alpha virt. eigenvalues --   -0.05103  -0.04477  -0.03416  -0.03416  -0.01751

 Mulliken charges:
               1
     1  C   -0.021214
     2  C   -0.023248
     3  C    0.010558
     4  C   -0.007304
     5  C    0.003526
     6  C   -0.003749
     7  C   -0.000759
     8  C    0.003858
     9  C   -0.000740
    10  C   -0.003843
    11  C    0.032551
    12  C    0.005800
    13  C    0.003510
    14  C   -0.007381
    15  C    0.010618
    16  C    0.032506
    17  C    0.005808
    18  C    0.005983
    19  C    0.032413
    20  C    0.010574
    21  C   -0.023270
    22  C    0.003913
    23  C   -0.000784
    24  C    0.003982
    25  C   -0.023215
    26  C   -0.021252
    27  C    0.003539
    28  C    0.005849
    29  C    0.032485
    30  C   -0.003721
    31  C   -0.021149
    32  C   -0.023306
    33  C    0.003872
    34  C   -0.000727
    35  C   -0.003852
    36  C   -0.021235
    37  C    0.003532
    38  C   -0.007290
    39  C   -0.007356
    40  C    0.003476
    41  C   -0.021171
    42  C   -0.003740
    43  C    0.032442
    44  C    0.010522
    45  C   -0.007342
    46  C   -0.007327
    47  C    0.010514
    48  C   -0.023207
    49  C    0.003862
    50  C   -0.000721
    51  C   -0.000757
    52  C    0.003930
    53  C   -0.023240
    54  C    0.010456
    55  C    0.032624
    56  C    0.005777
    57  C    0.005928
    58  C    0.003478
    59  C   -0.021186
    60  C   -0.003802
 Sum of Mulliken charges =  -0.00000

 Dipole moment (field-independent basis, Debye):
    X=              0.0000    Y=              0.0002    Z=             -0.0001  Tot=              0.0002
 Quadrupole moment (field-independent basis, Debye-Ang):
   XX=           -336.0075   YY=           -335.7723   ZZ=           -335.5963
   XY=              0.3209   XZ=             -0.1525   YZ=              0.1053

 Normal termination of Gaussian 16 at Fri Jun  6 05:47:49 2025.
