 Gaussian 16, Revision B.01,
 Gaussian 16:  ES64L-G16RevB.01 20-Dec-2017

 ------------------------------------
 # B3LYP/6-311G* Pop=Hirshfeld NOSYMM
 ------------------------------------

 ------------------------------
 From ../B3LYP_opt/C60_1777.out
 ------------------------------
 Symbolic Z-matrix:
 Charge =  0 Multiplicity = 1

                          Input orientation:
 ---------------------------------------------------------------------
 Center     Atomic      Atomic             Coordinates (Angstroms)
 Number     Number       Type             X           Y           Z
 ---------------------------------------------------------------------
      1          6           0       -1.801578    0.193208   -3.354077
      2          6           0       -0.532605   -0.224641   -3.885327
      3          6           0       -0.282374   -1.543081   -3.424304
      4          6           0       -1.367239   -1.905785   -2.520081
      5          6           0       -2.373248   -0.850267   -2.578202
      6          6           0       -1.673368    1.498409   -2.812774
      7          6           0       -0.244020    1.842523   -2.858463
      8          6           0        0.420556    0.810961   -3.646824
      9          6           0        1.733627    0.453568   -3.358593
     10          6           0        2.050190   -0.940621   -3.290590
     11          6           0        1.027273   -1.909512   -3.111029
     12          6           0        1.338808   -2.643386   -1.870473
     13          6           0        0.336876   -2.869565   -0.908590
     14          6           0       -1.071359   -2.556413   -1.291839
     15          6           0       -2.038788   -2.404252   -0.260113
     16          6           0       -3.150153   -1.484202   -0.379460
     17          6           0       -3.168803   -0.527937   -1.444579
     18          6           0       -3.321663    0.856642   -1.087240
     19          6           0       -2.445290    1.831683   -1.710937
     20          6           0       -1.901350    2.689918   -0.695764
     21          6           0       -0.492153    2.948997   -0.667529
     22          6           0        0.382592    2.412128   -1.732989
     23          6           0        1.782855    2.004151   -1.406237
     24          6           0        2.442633    1.099769   -2.258910
     25          6           0        3.384634    0.108599   -1.706776
     26          6           0        3.059865   -1.145291   -2.289586
     27          6           0        2.688501   -2.258702   -1.470367
     28          6           0        3.031404   -2.219930   -0.122845
     29          6           0        2.045748   -2.577755    0.890843
     30          6           0        0.711372   -2.858816    0.538381
     31          6           0       -0.327685   -2.614457    1.562744
     32          6           0       -1.693107   -2.545917    1.150126
     33          6           0       -2.625650   -1.780188    1.885888
     34          6           0       -3.471614   -1.073011    0.935876
     35          6           0       -3.579338    0.280435    1.311557
     36          6           0       -3.464305    1.253618    0.291062
     37          6           0       -2.645877    2.423627    0.520436
     38          6           0       -2.034588    2.617896    1.760825
     39          6           0       -0.730139    3.149892    1.778664
     40          6           0        0.073976    3.206231    0.617992
     41          6           0        1.383152    2.671575    0.976102
     42          6           0        2.243590    2.077559    0.011629
     43          6           0        3.200635    1.157304    0.517965
     44          6           0        3.747165    0.128770   -0.359252
     45          6           0        3.755827   -1.090984    0.365617
     46          6           0        3.312562   -0.809852    1.704158
     47          6           0        2.340121   -1.770383    2.084501
     48          6           0        1.322250   -1.373168    2.937186
     49          6           0        0.002657   -1.914803    2.769042
     50          6           0       -0.917779   -0.968884    3.370952
     51          6           0       -2.226366   -0.878495    2.892042
     52          6           0       -2.830607    0.435411    2.575474
     53          6           0       -2.104263    1.579086    2.813252
     54          6           0       -0.766431    1.493482    3.433877
     55          6           0        0.033351    2.476511    2.818774
     56          6           0        1.344624    2.221473    2.351521
     57          6           0        2.002598    1.004203    2.718531
     58          6           0        3.042541    0.577257    1.847744
     59          6           0        1.215719    0.003040    3.387034
     60          6           0       -0.175964    0.232372    3.683957
 ---------------------------------------------------------------------

 SCF Done:  E(RB3LYP) =  -2286.39846718     A.U. after   20 cycles

 Alpha  occ. eigenvalues --  -10.25204 -10.25203 -10.24788 -10.24788 -10.24484
 Alpha  occ. eigenvalues --  -10.24482 -10.24406 -10.24405 -10.24278 -10.24277
 Alpha  occ. eigenvalues --  -10.23990 -10.23929 -10.23846 -10.23845 -10.23783
 Alpha  occ. eigenvalues --  -10.23783 -10.23777 -10.23776 -10.23306 -10.23304
 Alpha  occ. eigenvalues --  -10.23301 -10.23300 -10.23205 -10.23205 -10.22982
 Alpha  occ. eigenvalues --  -10.22981 -10.22865 -10.22864 -10.22710 -10.22707
 Alpha  occ. eigenvalues --  -10.22621 -10.22607 -10.22606 -10.22582 -10.22536
 Alpha  occ. eigenvalues --  -10.22536 -10.22534 -10.22534 -10.22408 -10.22407
 Alpha  occ. eigenvalues --  -10.22361 -10.22360 -10.22356 -10.22355 -10.22354
 Alpha  occ. eigenvalues --  -10.22353 -10.22343 -10.22342 -10.22240 -10.22238
 Alpha  occ. eigenvalues --  -10.22150 -10.22149 -10.21964 -10.21963 -10.21915
 Alpha  occ. eigenvalues --  -10.21915 -10.21861 -10.21860 -10.21433 -10.21431
 Alpha  occ. eigenvalues --   -0.98826  -0.97541  -0.97077  -0.96081  -0.94125
 Alpha  occ. eigenvalues --   -0.93678  -0.92503  -0.92178  -0.90932  -0.89533
 Alpha  occ. eigenvalues --   -0.87670  -0.87317  -0.86745  -0.85781  -0.85595
 Alpha  occ. eigenvalues --   -0.85081  -0.81869  -0.81826  -0.81723  -0.80392
 Alpha  occ. eigenvalues --   -0.79812  -0.78990  -0.78565  -0.78443  -0.76010
 Alpha  occ. eigenvalues --   -0.74841  -0.74237  -0.73858  -0.72804  -0.72641
 Alpha  occ. eigenvalues --   -0.71315  -0.70483  -0.70043  -0.69494  -0.67405
 Alpha  occ. eigenvalues --   -0.65716  -0.65607  -0.65267  -0.64513  -0.64306
 Alpha  occ. eigenvalues --   -0.62681  -0.62605  -0.61506  -0.60609  -0.59924
 Alpha  occ. eigenvalues --   -0.59275  -0.58680  -0.57486  -0.56145  -0.55984
 Alpha  occ. eigenvalues --   -0.55615  -0.55160  -0.54510  -0.53285  -0.53022
 Alpha  occ. eigenvalues --   -0.52167  -0.51235  -0.50551  -0.50446  -0.49917
 Alpha  occ. eigenvalues --   -0.49650  -0.48688  -0.48216  -0.48207  -0.47745
 Alpha  occ. eigenvalues --   -0.47592  -0.47587  -0.47477  -0.47226  -0.46677
 Alpha  occ. eigenvalues --   -0.46198  -0.45902  -0.44783  -0.44742  -0.44614
 Alpha  occ. eigenvalues --   -0.44415  -0.44231  -0.43580  -0.43551  -0.43475
 Alpha  occ. eigenvalues --   -0.42856  -0.42540  -0.42437  -0.42303  -0.42054
 Alpha  occ. eigenvalues --   -0.41526  -0.41296  -0.40546  -0.40290  -0.38888
 Alpha  occ. eigenvalues --   -0.38462  -0.38367  -0.38120  -0.37674  -0.37288
 Alpha  occ. eigenvalues --   -0.37009  -0.36891  -0.36735  -0.36522  -0.36428
 Alpha  occ. eigenvalues --   -0.36004  -0.35527  -0.35450  -0.35029  -0.34413
 Alpha  occ. eigenvalues --   -0.34172  -0.30782  -0.30694  -0.29945  -0.28804
 Alpha  occ. eigenvalues --   -0.28620  -0.27898  -0.27274  -0.27199  -0.24531
 Alpha  occ. eigenvalues --   -0.23911  -0.23443  -0.22979  -0.22326  -0.22080
 Alpha virt. eigenvalues --   -0.16879  -0.15107  -0.12986  -0.10205  -0.08668
 Alpha virt. eigenvalues --   -0.07922  -0.07337  -0.06654  -0.06442  -0.05184
 Alpha virt. eigenvalues --   -0.05010  -0.04239  -0.03975  -0.03238  -0.01453

 Mulliken charges:
               1
     1  C   -0.006014
     2  C   -0.025284
     3  C    0.000538
     4  C    0.011055
     5  C   -0.014953
     6  C    0.003925
     7  C    0.006463
     8  C    0.001751
     9  C   -0.009735
    10  C   -0.006806
    11  C   -0.000602
    12  C    0.006158
    13  C    0.009459
    14  C    0.033676
    15  C   -0.012953
    16  C   -0.013614
    17  C    0.023335
    18  C   -0.007892
    19  C   -0.018864
    20  C    0.002263
    21  C    0.008496
    22  C    0.021528
    23  C    0.009724
    24  C    0.006096
    25  C   -0.000611
    26  C   -0.006779
    27  C   -0.009772
    28  C    0.001772
    29  C    0.006414
    30  C    0.021754
    31  C    0.008380
    32  C    0.004666
    33  C   -0.037523
    34  C   -0.004756
    35  C    0.016861
    36  C    0.002234
    37  C   -0.011381
    38  C    0.018570
    39  C   -0.037537
    40  C    0.004736
    41  C   -0.012900
    42  C    0.033552
    43  C    0.011115
    44  C    0.000524
    45  C   -0.025314
    46  C   -0.006015
    47  C    0.003980
    48  C   -0.018811
    49  C    0.002290
    50  C   -0.011442
    51  C    0.018603
    52  C   -0.000713
    53  C   -0.000770
    54  C    0.016961
    55  C   -0.004764
    56  C   -0.013720
    57  C    0.023312
    58  C   -0.014987
    59  C   -0.007973
    60  C    0.002294
 Sum of Mulliken charges =  -0.00000

 Dipole moment (field-independent basis, Debye):
    X=              0.1200    Y=             -0.0488    Z=             -0.1304  Tot=              0.1838
 Quadrupole moment (field-independent basis, Debye-Ang):
   XX=           -336.6338   YY=           -334.6120   ZZ=           -337.1215
   XY=              1.1780   XZ=             -2.0504   YZ=              0.9797

 Normal termination of Gaussian 16 at Fri Jun  6 05:54:13 2025.
