 Gaussian 16, Revision B.01,
 Gaussian 16:  ES64L-G16RevB.01 20-Dec-2017

 ------------------------------------
 # B3LYP/6-311G* Pop=Hirshfeld NOSYMM
 ------------------------------------

 ------------------------------
 From ../B3LYP_opt/C60_0002.out
 ------------------------------
 Symbolic Z-matrix:
 Charge =  0 Multiplicity = 1

                          Input orientation:
 ---------------------------------------------------------------------
 Center     Atomic      Atomic             Coordinates (Angstroms)
 Number     Number       Type             X           Y           Z
 ---------------------------------------------------------------------
      1          6           0       -5.248456   -0.908370    0.913568
      2          6           0       -5.590310    0.524208    1.125207
      3          6           0       -5.460253    1.145368   -0.147891
      4          6           0       -5.190963    0.170385   -1.117987
      5          6           0       -5.003716   -1.134206   -0.489604
      6          6           0       -4.238968   -1.273740    1.822215
      7          6           0       -3.813217   -0.019155    2.538335
      8          6           0       -4.513509    1.037319    1.905923
      9          6           0       -3.692193    1.993725    1.108266
     10          6           0       -4.286526    2.030997   -0.170202
     11          6           0       -3.461221    1.748355   -1.348239
     12          6           0       -4.027286    0.518025   -1.900459
     13          6           0       -3.186755   -0.603427   -1.905783
     14          6           0       -3.726822   -1.594738   -0.923017
     15          6           0       -2.745936   -2.100329   -0.005314
     16          6           0       -3.043810   -1.894746    1.402185
     17          6           0       -1.941647   -1.304811    2.172015
     18          6           0       -2.428816   -0.006133    2.628083
     19          6           0       -1.615932    1.116030    2.169179
     20          6           0       -2.261036    2.001064    1.223803
     21          6           0       -1.472762    2.260620    0.021095
     22          6           0       -2.081711    1.870613   -1.262481
     23          6           0       -1.250250    0.900525   -2.005628
     24          6           0       -1.794452   -0.428407   -2.070579
     25          6           0       -0.895198   -1.448100   -1.598355
     26          6           0       -1.343885   -2.127908   -0.399075
     27          6           0       -0.312352   -2.196262    0.610393
     28          6           0       -0.627688   -1.498529    1.846044
     29          6           0        0.336129   -0.442220    2.186213
     30          6           0       -0.214629    0.897370    2.088395
     31          6           0        0.604645    1.780017    1.295817
     32          6           0       -0.072494    2.252213    0.101582
     33          6           0        0.710313    2.066074   -1.128480
     34          6           0        0.148784    1.073373   -2.029664
     35          6           0        1.029325   -0.031897   -2.331112
     36          6           0        0.494922   -1.300244   -1.875535
     37          6           0        1.426648   -2.096787   -1.121390
     38          6           0        1.048187   -2.287729    0.252129
     39          6           0        2.078629   -1.892297    1.235313
     40          6           0        1.703375   -0.677658    1.979774
     41          6           0        2.619068    0.456978    1.883310
     42          6           0        2.018874    1.650545    1.327638
     43          6           0        2.758198    2.267907    0.230930
     44          6           0        2.070352    2.188720   -1.054533
     45          6           0        2.980854    1.462629   -1.948437
     46          6           0        2.467099    0.185756   -2.414994
     47          6           0        3.359279   -0.928670   -2.266413
     48          6           0        2.800082   -2.051316   -1.449762
     49          6           0        3.752533   -2.404901   -0.484374
     50          6           0        3.410150   -2.099625    0.904423
     51          6           0        4.419186   -1.121062    1.320593
     52          6           0        4.009944    0.187979    1.649307
     53          6           0        4.823677    1.092679    0.786166
     54          6           0        4.106085    2.030567    0.003970
     55          6           0        4.284805    1.588519   -1.424574
     56          6           0        5.190770    0.512758   -1.413691
     57          6           0        4.727636   -0.761156   -1.906106
     58          6           0        4.968584   -1.696708   -0.811336
     59          6           0        5.478498   -1.020738    0.305475
     60          6           0        5.716164    0.340554   -0.032330
 ---------------------------------------------------------------------

 SCF Done:  E(RB3LYP) =  -2285.98107403     A.U. after   21 cycles

 Alpha  occ. eigenvalues --  -10.25143 -10.25142 -10.24716 -10.24715 -10.24409
 Alpha  occ. eigenvalues --  -10.24409 -10.24247 -10.24247 -10.24211 -10.24210
 Alpha  occ. eigenvalues --  -10.24157 -10.24157 -10.24136 -10.24135 -10.24083
 Alpha  occ. eigenvalues --  -10.24082 -10.24030 -10.24029 -10.24012 -10.23998
 Alpha  occ. eigenvalues --  -10.23997 -10.23975 -10.23915 -10.23914 -10.23828
 Alpha  occ. eigenvalues --  -10.23827 -10.23774 -10.23773 -10.23768 -10.23768
 Alpha  occ. eigenvalues --  -10.23740 -10.23739 -10.23711 -10.23710 -10.23488
 Alpha  occ. eigenvalues --  -10.23488 -10.23480 -10.23437 -10.23382 -10.23381
 Alpha  occ. eigenvalues --  -10.23308 -10.23306 -10.23226 -10.23226 -10.23190
 Alpha  occ. eigenvalues --  -10.23189 -10.23000 -10.22998 -10.22970 -10.22970
 Alpha  occ. eigenvalues --  -10.22722 -10.22721 -10.22534 -10.22534 -10.22514
 Alpha  occ. eigenvalues --  -10.22514 -10.22463 -10.22463 -10.21405 -10.21403
 Alpha  occ. eigenvalues --   -1.00214  -1.00002  -0.96357  -0.95774  -0.95362
 Alpha  occ. eigenvalues --   -0.93830  -0.93393  -0.92326  -0.90563  -0.90487
 Alpha  occ. eigenvalues --   -0.87966  -0.87054  -0.86979  -0.85871  -0.85686
 Alpha  occ. eigenvalues --   -0.84827  -0.84445  -0.82196  -0.81037  -0.80750
 Alpha  occ. eigenvalues --   -0.80083  -0.80048  -0.77080  -0.76980  -0.76580
 Alpha  occ. eigenvalues --   -0.75616  -0.74867  -0.74263  -0.73661  -0.73622
 Alpha  occ. eigenvalues --   -0.71603  -0.69625  -0.68752  -0.68637  -0.67784
 Alpha  occ. eigenvalues --   -0.67236  -0.66396  -0.66229  -0.64389  -0.63961
 Alpha  occ. eigenvalues --   -0.62431  -0.61926  -0.61119  -0.60329  -0.60057
 Alpha  occ. eigenvalues --   -0.58926  -0.57848  -0.57817  -0.57526  -0.56635
 Alpha  occ. eigenvalues --   -0.56086  -0.55526  -0.55086  -0.53735  -0.53383
 Alpha  occ. eigenvalues --   -0.51840  -0.51474  -0.51248  -0.51203  -0.50854
 Alpha  occ. eigenvalues --   -0.50165  -0.49333  -0.49213  -0.48961  -0.48747
 Alpha  occ. eigenvalues --   -0.47993  -0.47902  -0.47406  -0.47352  -0.46728
 Alpha  occ. eigenvalues --   -0.46726  -0.46183  -0.45934  -0.45644  -0.45638
 Alpha  occ. eigenvalues --   -0.45296  -0.44889  -0.44008  -0.44004  -0.43222
 Alpha  occ. eigenvalues --   -0.42485  -0.42484  -0.41913  -0.41618  -0.41011
 Alpha  occ. eigenvalues --   -0.40937  -0.40869  -0.40626  -0.39298  -0.39158
 Alpha  occ. eigenvalues --   -0.39068  -0.38791  -0.38211  -0.37766  -0.37465
 Alpha  occ. eigenvalues --   -0.37195  -0.36940  -0.36928  -0.36398  -0.35358
 Alpha  occ. eigenvalues --   -0.35277  -0.34974  -0.33961  -0.33956  -0.33909
 Alpha  occ. eigenvalues --   -0.32847  -0.32814  -0.30543  -0.29031  -0.28887
 Alpha  occ. eigenvalues --   -0.28127  -0.28089  -0.25183  -0.25042  -0.24602
 Alpha  occ. eigenvalues --   -0.23956  -0.23882  -0.22417  -0.22132  -0.21751
 Alpha virt. eigenvalues --   -0.16954  -0.14379  -0.14259  -0.12592  -0.11349
 Alpha virt. eigenvalues --   -0.09238  -0.09028  -0.07123  -0.06966  -0.06177
 Alpha virt. eigenvalues --   -0.06119  -0.06029  -0.04861  -0.04647  -0.04149

 Mulliken charges:
               1
     1  C    0.028205
     2  C   -0.056113
     3  C    0.001073
     4  C    0.027654
     5  C   -0.037572
     6  C   -0.025101
     7  C   -0.021870
     8  C    0.029042
     9  C   -0.001994
    10  C    0.010526
    11  C   -0.005527
    12  C   -0.016337
    13  C    0.002594
    14  C    0.011730
    15  C    0.003999
    16  C    0.019829
    17  C   -0.031223
    18  C    0.019145
    19  C   -0.002624
    20  C    0.023383
    21  C    0.000089
    22  C    0.012410
    23  C   -0.027416
    24  C    0.007535
    25  C   -0.002408
    26  C    0.019547
    27  C    0.003376
    28  C    0.017555
    29  C   -0.015280
    30  C    0.005864
    31  C    0.005914
    32  C   -0.015412
    33  C    0.017659
    34  C    0.003260
    35  C    0.019561
    36  C   -0.002395
    37  C    0.007589
    38  C   -0.027503
    39  C    0.012452
    40  C    0.000064
    41  C    0.023361
    42  C   -0.002616
    43  C    0.019131
    44  C   -0.031242
    45  C    0.019876
    46  C    0.003903
    47  C    0.011777
    48  C    0.002667
    49  C   -0.016474
    50  C   -0.005528
    51  C    0.010394
    52  C   -0.001922
    53  C    0.028988
    54  C   -0.021828
    55  C   -0.025146
    56  C    0.028240
    57  C   -0.037638
    58  C    0.027812
    59  C    0.001002
    60  C   -0.056039
 Sum of Mulliken charges =  -0.00000

 Dipole moment (field-independent basis, Debye):
    X=              0.0267    Y=              0.1814    Z=              0.2281  Tot=              0.2927
 Quadrupole moment (field-independent basis, Debye-Ang):
   XX=           -343.3674   YY=           -336.4169   ZZ=           -336.9390
   XY=             -3.3692   XZ=              3.5244   YZ=              0.7929

 Normal termination of Gaussian 16 at Sun Sep  9 10:10:01 2007.
