 Gaussian 16, Revision B.01,
 Gaussian 16:  ES64L-G16RevB.01 20-Dec-2017

 ------------------------------------
 # B3LYP/6-311G* Pop=Hirshfeld NOSYMM
 ------------------------------------

 -----------------------------
 From ../../cnt_12_6-1_opt.out
 -----------------------------
 Symbolic Z-matrix:
 Charge =  0 Multiplicity = 1

                          Input orientation:
 ---------------------------------------------------------------------
 Center     Atomic      Atomic             Coordinates (Angstroms)
 Number     Number       Type             X           Y           Z
 ---------------------------------------------------------------------
      1          6           0        6.387065   -0.008499    0.020276
      2          6           0        6.282763    1.335693    0.271832
      3          6           0        3.200128    5.525930    0.019856
      4          6           0        1.983953    6.107816    0.271511
      5          6           0       -3.186449    5.534994    0.020286
      6          6           0       -4.298590    4.772879    0.272005
      7          6           0       -6.387065    0.008499    0.020276
      8          6           0       -6.282763   -1.335693    0.271832
      9          6           0       -3.200128   -5.525930    0.019856
     10          6           0       -1.983953   -6.107816    0.271511
     11          6           0        3.186449   -5.534994    0.020286
     12          6           0        4.298590   -4.772879    0.272005
     13          6           0        4.941043    3.944803    0.822332
     14          6           0        3.948037    4.912623    1.070580
     15          6           0       -0.946322    6.251303    0.822467
     16          6           0       -2.281028    5.875546    1.070886
     17          6           0       -5.887759    2.306667    0.822738
     18          6           0       -6.229508    0.962815    1.070998
     19          6           0       -4.941043   -3.944803    0.822332
     20          6           0       -3.948037   -4.912623    1.070580
     21          6           0        0.946322   -6.251303    0.822467
     22          6           0        2.281028   -5.875546    1.070886
     23          6           0        5.887759   -2.306667    0.822738
     24          6           0        6.229508   -0.962815    1.070998
     25          6           0        1.435989    6.158429    1.588728
     26          6           0        0.006634    6.298683    1.845921
     27          6           0       -4.616153    4.323302    1.589178
     28          6           0       -5.452280    3.155523    1.846278
     29          6           0       -6.052178   -1.835595    1.588958
     30          6           0       -5.458730   -3.143524    1.845938
     31          6           0       -1.435989   -6.158429    1.588728
     32          6           0       -0.006634   -6.298683    1.845921
     33          6           0        4.616153   -4.323302    1.589178
     34          6           0        5.452280   -3.155523    1.846278
     35          6           0        6.052178    1.835595    1.588958
     36          6           0        5.458730    3.143524    1.845938
     37          6           0       -2.705592    5.640427    2.411469
     38          6           0       -3.895649    4.889020    2.667036
     39          6           0       -6.238041    0.477401    2.411525
     40          6           0       -6.182134   -0.928944    2.666929
     41          6           0       -3.532159   -5.162983    2.411133
     42          6           0       -2.286320   -5.817776    2.666620
     43          6           0        2.705592   -5.640427    2.411469
     44          6           0        3.895649   -4.889020    2.667036
     45          6           0        6.238041   -0.477401    2.411525
     46          6           0        6.182134    0.928944    2.666929
     47          6           0        3.532159    5.162983    2.411133
     48          6           0        2.286320    5.817776    2.666620
     49          6           0       -5.625603    2.718798    3.205401
     50          6           0       -6.072043    1.398509    3.479722
     51          6           0       -5.167310   -3.512196    3.205032
     52          6           0       -4.247094   -4.558935    3.479327
     53          6           0        0.458160   -6.230694    3.205082
     54          6           0        1.824768   -5.957251    3.479548
     55          6           0        5.625603   -2.718798    3.205401
     56          6           0        6.072043   -1.398509    3.479722
     57          6           0        5.167310    3.512196    3.205032
     58          6           0        4.247094    4.558935    3.479327
     59          6           0       -0.458160    6.230694    3.205082
     60          6           0       -1.824768    5.957251    3.479548
     61          6           0       -6.076024   -1.384904    4.025071
     62          6           0       -5.621758   -2.702353    4.289583
     63          6           0       -1.838579   -5.954014    4.024825
     64          6           0       -0.470529   -6.219296    4.289505
     65          6           0        4.237286   -4.569202    4.025242
     66          6           0        5.151108   -3.517137    4.289895
     67          6           0        6.076024    1.384904    4.025071
     68          6           0        5.621758    2.702353    4.289583
     69          6           0        1.838579    5.954014    4.024825
     70          6           0        0.470529    6.219296    4.289505
     71          6           0       -4.237286    4.569202    4.025242
     72          6           0       -5.151108    3.517137    4.289895
     73          6           0       -3.888366   -4.864483    4.832332
     74          6           0       -2.701669   -5.615565    5.097347
     75          6           0        2.268567   -5.799248    4.832605
     76          6           0        3.512338   -5.147111    5.097740
     77          6           0        6.157010   -0.934997    4.832713
     78          6           0        6.214172    0.468259    5.097672
     79          6           0        3.888366    4.864483    4.832332
     80          6           0        2.701669    5.615565    5.097347
     81          6           0       -2.268567    5.799248    4.832605
     82          6           0       -3.512338    5.147111    5.097740
     83          6           0       -6.157010    0.934997    4.832713
     84          6           0       -6.214172   -0.468259    5.097672
     85          6           0       -0.002605   -6.231545    5.636489
     86          6           0        1.392403   -6.069589    5.901615
     87          6           0        5.395524   -3.117846    5.636846
     88          6           0        5.952884   -1.828773    5.901840
     89          6           0        5.398294    3.113819    5.636499
     90          6           0        4.560598    4.241064    5.901438
     91          6           0        0.002605    6.231545    5.636489
     92          6           0       -1.392403    6.069589    5.901615
     93          6           0       -5.395524    3.117846    5.636846
     94          6           0       -5.952884    1.828773    5.901840
     95          6           0       -5.398294   -3.113819    5.636499
     96          6           0       -4.560598   -4.241064    5.901438
     97          6           0        3.892050   -4.873422    6.444715
     98          6           0        4.872993   -3.883616    6.709386
     99          6           0        6.167070    0.934113    6.444576
    100          6           0        5.800402    2.278584    6.709103
    101          6           0        2.274830    5.807799    6.444297
    102          6           0        0.927136    6.162322    6.708977
    103          6           0       -3.892050    4.873422    6.444715
    104          6           0       -4.872993    3.883616    6.709386
    105          6           0       -6.167070   -0.934113    6.444576
    106          6           0       -5.800402   -2.278584    6.709103
    107          6           0       -2.274830   -5.807799    6.444297
    108          6           0       -0.927136   -6.162322    6.708977
    109          6           0        6.077190   -1.374225    7.254849
    110          6           0        6.247859    0.009012    7.529119
    111          6           0        4.229286    4.576181    7.254438
    112          6           0        3.116609    5.415491    7.528770
    113          6           0       -1.848081    5.950092    7.254676
    114          6           0       -3.131203    5.406054    7.529146
    115          6           0       -6.077190    1.374225    7.254849
    116          6           0       -6.247859   -0.009012    7.529119
    117          6           0       -4.229286   -4.576181    7.254438
    118          6           0       -3.116609   -5.415491    7.528770
    119          6           0        1.848081   -5.950092    7.254676
    120          6           0        3.131203   -5.406054    7.529146
    121          6           0        5.631282    2.715095    8.067251
    122          6           0        4.885336    3.908638    8.322627
    123          6           0        0.464704    6.234079    8.067177
    124          6           0       -0.941852    6.184555    8.322769
    125          6           0       -5.166137    3.518801    8.067585
    126          6           0       -5.826769    2.276044    8.323054
    127          6           0       -5.631282   -2.715095    8.067251
    128          6           0       -4.885336   -3.908638    8.322627
    129          6           0       -0.464704   -6.234079    8.067177
    130          6           0        0.941852   -6.184555    8.322769
    131          6           0        5.166137   -3.518801    8.067585
    132          6           0        5.826769   -2.276044    8.323054
    133          6           0        2.727386    5.678679    8.887888
    134          6           0        1.378691    6.172400    9.145027
    135          6           0       -3.553513    5.200370    8.888311
    136          6           0       -4.655418    4.279211    9.145487
    137          6           0       -6.281000   -0.477787    8.888221
    138          6           0       -6.034542   -1.892730    9.145217
    139          6           0       -2.727386   -5.678679    8.887888
    140          6           0       -1.378691   -6.172400    9.145027
    141          6           0        3.553513   -5.200370    8.888311
    142          6           0        4.655418   -4.279211    9.145487
    143          6           0        6.281000    0.477787    8.888221
    144          6           0        6.034542    1.892730    9.145217
    145          6           0       -1.425081    6.139630    9.663359
    146          6           0       -2.739526    5.698166    9.911769
    147          6           0       -6.029429    1.834912    9.663600
    148          6           0       -6.304750    0.475895    9.911822
    149          6           0       -4.604790   -4.304856    9.663157
    150          6           0       -3.565414   -5.222655    9.911420
    151          6           0        1.425081   -6.139630    9.663359
    152          6           0        2.739526   -5.698166    9.911769
    153          6           0        6.029429   -1.834912    9.663600
    154          6           0        6.304750   -0.475895    9.911822
    155          6           0        4.604790    4.304856    9.663157
    156          6           0        3.565414    5.222655    9.911420
    157          6           0       -5.079713    3.928739   10.462689
    158          6           0       -5.756911    2.762942   10.714335
    159          6           0       -5.943452   -2.435644   10.462346
    160          6           0       -5.272484   -3.605062   10.713894
    161          6           0       -0.863096   -6.364857   10.462225
    162          6           0        0.485101   -6.368161   10.713968
    163          6           0        5.079713   -3.928739   10.462689
    164          6           0        5.756911   -2.762942   10.714335
    165          6           0        5.943452    2.435644   10.462346
    166          6           0        5.272484    3.605062   10.713894
    167          6           0        0.863096    6.364857   10.462225
    168          6           0       -0.485101    6.368161   10.713968
    169          1           0        6.494242   -0.363499   -1.001717
    170          1           0        6.319170    2.027692   -0.563335
    171          1           0        3.560931    5.440945   -1.002190
    172          1           0        1.402719    6.485151   -0.563639
    173          1           0       -2.932641    5.805180   -1.001752
    174          1           0       -4.916251    4.458532   -0.563085
    175          1           0       -6.494242    0.363499   -1.001717
    176          1           0       -6.319170   -2.027692   -0.563335
    177          1           0       -3.560931   -5.440945   -1.002190
    178          1           0       -1.402719   -6.485151   -0.563639
    179          1           0        2.932641   -5.805180   -1.001752
    180          1           0        4.916251   -4.458532   -0.563085
    181          1           0        5.163026    3.713575   -0.214450
    182          1           0       -0.635248    6.328059   -0.214355
    183          1           0       -5.798693    2.614564   -0.214045
    184          1           0       -5.163026   -3.713575   -0.214450
    185          1           0        0.635248   -6.328059   -0.214355
    186          1           0        5.798693   -2.614564   -0.214045
    187          1           0       -3.039764    5.586300   10.948591
    188          1           0       -6.358052    0.159812   10.948601
    189          1           0       -3.318404   -5.426885   10.948208
    190          1           0        3.039764   -5.586300   10.948591
    191          1           0        6.358052   -0.159812   10.948601
    192          1           0        3.318404    5.426885   10.948208
    193          1           0       -4.811942    4.567866   11.297855
    194          1           0       -6.007185    2.489500   11.736379
    195          1           0       -6.363270   -1.884362   11.297532
    196          1           0       -5.161006   -3.958713   11.735894
    197          1           0       -1.550548   -6.452850   11.297317
    198          1           0        0.846984   -6.448344   11.736021
    199          1           0        4.811942   -4.567866   11.297855
    200          1           0        6.007185   -2.489500   11.736379
    201          1           0        6.363270    1.884362   11.297532
    202          1           0        5.161006    3.958713   11.735894
    203          1           0        1.550548    6.452850   11.297317
    204          1           0       -0.846984    6.448344   11.736021
 ---------------------------------------------------------------------

 SCF Done:  E(RB3LYP) =  -6425.71092721     A.U. after   14 cycles

 Alpha  occ. eigenvalues --  -10.20350 -10.20350 -10.20350 -10.20350 -10.20350
 Alpha  occ. eigenvalues --  -10.20350 -10.20350 -10.20350 -10.20350 -10.20350
 Alpha  occ. eigenvalues --  -10.20350 -10.20350 -10.20182 -10.20182 -10.20182
 Alpha  occ. eigenvalues --  -10.20182 -10.20182 -10.20182 -10.20182 -10.20182
 Alpha  occ. eigenvalues --  -10.20182 -10.20182 -10.20182 -10.20182 -10.20057
 Alpha  occ. eigenvalues --  -10.20057 -10.20057 -10.20057 -10.20057 -10.20057
 Alpha  occ. eigenvalues --  -10.20056 -10.20056 -10.20056 -10.20056 -10.20056
 Alpha  occ. eigenvalues --  -10.20056 -10.20035 -10.20035 -10.20035 -10.20035
 Alpha  occ. eigenvalues --  -10.20035 -10.20035 -10.20033 -10.20032 -10.20032
 Alpha  occ. eigenvalues --  -10.20031 -10.20031 -10.20030 -10.20016 -10.20015
 Alpha  occ. eigenvalues --  -10.20015 -10.20014 -10.20014 -10.20014 -10.20014
 Alpha  occ. eigenvalues --  -10.20014 -10.20014 -10.20012 -10.20012 -10.20011
 Alpha  occ. eigenvalues --  -10.20010 -10.20009 -10.20009 -10.20009 -10.20009
 Alpha  occ. eigenvalues --  -10.20009 -10.20000 -10.20000 -10.20000 -10.20000
 Alpha  occ. eigenvalues --  -10.20000 -10.20000 -10.19978 -10.19978 -10.19978
 Alpha  occ. eigenvalues --  -10.19977 -10.19977 -10.19977 -10.19975 -10.19974
 Alpha  occ. eigenvalues --  -10.19974 -10.19973 -10.19973 -10.19972 -10.19965
 Alpha  occ. eigenvalues --  -10.19963 -10.19963 -10.19959 -10.19959 -10.19957
 Alpha  occ. eigenvalues --  -10.19941 -10.19940 -10.19939 -10.19936 -10.19936
 Alpha  occ. eigenvalues --  -10.19935 -10.19935 -10.19935 -10.19935 -10.19934
 Alpha  occ. eigenvalues --  -10.19934 -10.19934 -10.19923 -10.19923 -10.19922
 Alpha  occ. eigenvalues --  -10.19921 -10.19921 -10.19921 -10.19819 -10.19819
 Alpha  occ. eigenvalues --  -10.19819 -10.19819 -10.19819 -10.19819 -10.19818
 Alpha  occ. eigenvalues --  -10.19818 -10.19818 -10.19818 -10.19818 -10.19818
 Alpha  occ. eigenvalues --  -10.19773 -10.19773 -10.19773 -10.19773 -10.19773
 Alpha  occ. eigenvalues --  -10.19773 -10.19773 -10.19773 -10.19773 -10.19773
 Alpha  occ. eigenvalues --  -10.19773 -10.19773 -10.18967 -10.18967 -10.18967
 Alpha  occ. eigenvalues --  -10.18967 -10.18967 -10.18967 -10.18967 -10.18967
 Alpha  occ. eigenvalues --  -10.18966 -10.18966 -10.18966 -10.18966 -10.18962
 Alpha  occ. eigenvalues --  -10.18962 -10.18962 -10.18962 -10.18962 -10.18962
 Alpha  occ. eigenvalues --  -10.18962 -10.18962 -10.18962 -10.18962 -10.18962
 Alpha  occ. eigenvalues --  -10.18961 -10.18903 -10.18903 -10.18903 -10.18903
 Alpha  occ. eigenvalues --  -10.18903 -10.18903 -10.18903 -10.18903 -10.18903
 Alpha  occ. eigenvalues --  -10.18903 -10.18903 -10.18903  -0.93832  -0.93550
 Alpha  occ. eigenvalues --   -0.93550  -0.92709  -0.92709  -0.91568  -0.91377
 Alpha  occ. eigenvalues --   -0.91297  -0.91297  -0.91259  -0.90504  -0.90503
 Alpha  occ. eigenvalues --   -0.89342  -0.89342  -0.89297  -0.88944  -0.88282
 Alpha  occ. eigenvalues --   -0.88049  -0.88048  -0.87651  -0.87651  -0.86890
 Alpha  occ. eigenvalues --   -0.86890  -0.86665  -0.86665  -0.85976  -0.85635
 Alpha  occ. eigenvalues --   -0.84692  -0.84692  -0.84264  -0.84258  -0.84258
 Alpha  occ. eigenvalues --   -0.83994  -0.83729  -0.83729  -0.83442  -0.82222
 Alpha  occ. eigenvalues --   -0.82222  -0.81906  -0.81839  -0.81409  -0.81225
 Alpha  occ. eigenvalues --   -0.81225  -0.81166  -0.80447  -0.80447  -0.79878
 Alpha  occ. eigenvalues --   -0.79878  -0.79212  -0.79212  -0.78728  -0.78577
 Alpha  occ. eigenvalues --   -0.78496  -0.78138  -0.78138  -0.77079  -0.77079
 Alpha  occ. eigenvalues --   -0.76700  -0.76700  -0.76579  -0.76429  -0.76429
 Alpha  occ. eigenvalues --   -0.75913  -0.75567  -0.75567  -0.75223  -0.75223
 Alpha  occ. eigenvalues --   -0.74893  -0.74663  -0.74663  -0.74218  -0.74218
 Alpha  occ. eigenvalues --   -0.73862  -0.73845  -0.73713  -0.72648  -0.72596
 Alpha  occ. eigenvalues --   -0.72596  -0.71887  -0.71887  -0.71456  -0.70034
 Alpha  occ. eigenvalues --   -0.70034  -0.69806  -0.68744  -0.67501  -0.67429
 Alpha  occ. eigenvalues --   -0.67429  -0.67120  -0.66891  -0.66891  -0.66773
 Alpha  occ. eigenvalues --   -0.66546  -0.66545  -0.66404  -0.66404  -0.65935
 Alpha  occ. eigenvalues --   -0.65390  -0.65390  -0.65354  -0.65354  -0.65257
 Alpha  occ. eigenvalues --   -0.64756  -0.64717  -0.64120  -0.64120  -0.63025
 Alpha  occ. eigenvalues --   -0.63025  -0.62955  -0.62864  -0.62864  -0.62034
 Alpha  occ. eigenvalues --   -0.62034  -0.61562  -0.61562  -0.61511  -0.60570
 Alpha  occ. eigenvalues --   -0.60569  -0.60188  -0.60188  -0.59835  -0.59791
 Alpha  occ. eigenvalues --   -0.59553  -0.58992  -0.58992  -0.58021  -0.57765
 Alpha  occ. eigenvalues --   -0.57765  -0.57218  -0.57218  -0.56727  -0.56727
 Alpha  occ. eigenvalues --   -0.56653  -0.56625  -0.55805  -0.55683  -0.55683
 Alpha  occ. eigenvalues --   -0.55390  -0.54759  -0.54439  -0.54439  -0.54241
 Alpha  occ. eigenvalues --   -0.54082  -0.54082  -0.54056  -0.52747  -0.52585
 Alpha  occ. eigenvalues --   -0.52585  -0.52567  -0.52567  -0.52495  -0.52479
 Alpha  occ. eigenvalues --   -0.52479  -0.52459  -0.52203  -0.51947  -0.51947
 Alpha  occ. eigenvalues --   -0.51221  -0.51059  -0.51058  -0.50455  -0.49985
 Alpha  occ. eigenvalues --   -0.49985  -0.49802  -0.49659  -0.49402  -0.49402
 Alpha  occ. eigenvalues --   -0.48980  -0.48980  -0.48327  -0.48327  -0.48036
 Alpha  occ. eigenvalues --   -0.48036  -0.47901  -0.47858  -0.47858  -0.47255
 Alpha  occ. eigenvalues --   -0.47255  -0.47222  -0.47222  -0.46939  -0.46791
 Alpha  occ. eigenvalues --   -0.46316  -0.46316  -0.46274  -0.46003  -0.45985
 Alpha  occ. eigenvalues --   -0.45934  -0.45934  -0.45865  -0.45837  -0.45837
 Alpha  occ. eigenvalues --   -0.45795  -0.45795  -0.45240  -0.45004  -0.45004
 Alpha  occ. eigenvalues --   -0.44997  -0.44923  -0.44906  -0.44906  -0.44424
 Alpha  occ. eigenvalues --   -0.44424  -0.44042  -0.44042  -0.43834  -0.43814
 Alpha  occ. eigenvalues --   -0.43814  -0.43757  -0.43757  -0.43714  -0.43540
 Alpha  occ. eigenvalues --   -0.43499  -0.43386  -0.43386  -0.43301  -0.43301
 Alpha  occ. eigenvalues --   -0.43121  -0.43110  -0.42802  -0.42776  -0.42775
 Alpha  occ. eigenvalues --   -0.42708  -0.42708  -0.42455  -0.42271  -0.42271
 Alpha  occ. eigenvalues --   -0.42265  -0.42102  -0.42102  -0.42037  -0.42032
 Alpha  occ. eigenvalues --   -0.42032  -0.41979  -0.41979  -0.41809  -0.41125
 Alpha  occ. eigenvalues --   -0.41021  -0.40906  -0.40823  -0.40823  -0.40752
 Alpha  occ. eigenvalues --   -0.40750  -0.40750  -0.40579  -0.40408  -0.40408
 Alpha  occ. eigenvalues --   -0.40274  -0.40068  -0.40068  -0.39970  -0.39969
 Alpha  occ. eigenvalues --   -0.39612  -0.39415  -0.39414  -0.39246  -0.39133
 Alpha  occ. eigenvalues --   -0.39133  -0.38352  -0.38274  -0.38028  -0.38028
 Alpha  occ. eigenvalues --   -0.38027  -0.37954  -0.37953  -0.37442  -0.37442
 Alpha  occ. eigenvalues --   -0.37252  -0.37252  -0.37225  -0.37225  -0.36793
 Alpha  occ. eigenvalues --   -0.36624  -0.36582  -0.36582  -0.36363  -0.36176
 Alpha  occ. eigenvalues --   -0.36176  -0.36062  -0.35279  -0.35279  -0.35030
 Alpha  occ. eigenvalues --   -0.34969  -0.34969  -0.34855  -0.34850  -0.34835
 Alpha  occ. eigenvalues --   -0.34835  -0.34763  -0.34510  -0.34510  -0.34369
 Alpha  occ. eigenvalues --   -0.34369  -0.34306  -0.34186  -0.34186  -0.33907
 Alpha  occ. eigenvalues --   -0.33547  -0.32992  -0.32991  -0.32698  -0.32698
 Alpha  occ. eigenvalues --   -0.32244  -0.32244  -0.31863  -0.31639  -0.31639
 Alpha  occ. eigenvalues --   -0.31632  -0.31477  -0.31364  -0.31332  -0.31125
 Alpha  occ. eigenvalues --   -0.31125  -0.31106  -0.29926  -0.29926  -0.29871
 Alpha  occ. eigenvalues --   -0.29871  -0.29070  -0.29070  -0.28725  -0.28124
 Alpha  occ. eigenvalues --   -0.27909  -0.27540  -0.27540  -0.27484  -0.27484
 Alpha  occ. eigenvalues --   -0.27412  -0.26453  -0.26453  -0.26060  -0.26060
 Alpha  occ. eigenvalues --   -0.25479  -0.25177  -0.25177  -0.25018  -0.24668
 Alpha  occ. eigenvalues --   -0.24668  -0.24491  -0.24491  -0.24078  -0.23820
 Alpha  occ. eigenvalues --   -0.23805  -0.23805  -0.23261  -0.21802  -0.21579
 Alpha  occ. eigenvalues --   -0.21579  -0.20789  -0.20789  -0.20438  -0.17844
 Alpha  occ. eigenvalues --   -0.17844  -0.16164
 Alpha virt. eigenvalues --   -0.12431  -0.10584  -0.10584  -0.07837  -0.07837
 Alpha virt. eigenvalues --   -0.07830  -0.07137  -0.07137  -0.06908  -0.05996
 Alpha virt. eigenvalues --   -0.05771  -0.05360  -0.05194  -0.05194  -0.04997

 Mulliken charges:
               1
     1  C   -0.238193
     2  C   -0.222655
     3  C   -0.238224
     4  C   -0.222601
     5  C   -0.238200
     6  C   -0.222671
     7  C   -0.238193
     8  C   -0.222655
     9  C   -0.238224
    10  C   -0.222601
    11  C   -0.238200
    12  C   -0.222671
    13  C   -0.251245
    14  C    0.061642
    15  C   -0.251209
    16  C    0.061532
    17  C   -0.251176
    18  C    0.061520
    19  C   -0.251245
    20  C    0.061642
    21  C   -0.251209
    22  C    0.061532
    23  C   -0.251176
    24  C    0.061520
    25  C    0.021769
    26  C    0.006977
    27  C    0.022017
    28  C    0.006779
    29  C    0.021904
    30  C    0.007009
    31  C    0.021769
    32  C    0.006977
    33  C    0.022017
    34  C    0.006779
    35  C    0.021903
    36  C    0.007010
    37  C   -0.014533
    38  C   -0.013433
    39  C   -0.014497
    40  C   -0.013269
    41  C   -0.014743
    42  C   -0.013021
    43  C   -0.014533
    44  C   -0.013433
    45  C   -0.014497
    46  C   -0.013269
    47  C   -0.014743
    48  C   -0.013021
    49  C    0.042676
    50  C   -0.051115
    51  C    0.042223
    52  C   -0.050649
    53  C    0.042337
    54  C   -0.050959
    55  C    0.042676
    56  C   -0.051115
    57  C    0.042223
    58  C   -0.050649
    59  C    0.042337
    60  C   -0.050959
    61  C    0.004230
    62  C   -0.026265
    63  C    0.004053
    64  C   -0.026278
    65  C    0.004673
    66  C   -0.026958
    67  C    0.004230
    68  C   -0.026265
    69  C    0.004053
    70  C   -0.026278
    71  C    0.004673
    72  C   -0.026958
    73  C    0.021237
    74  C    0.064756
    75  C    0.021672
    76  C    0.064132
    77  C    0.021682
    78  C    0.064453
    79  C    0.021237
    80  C    0.064756
    81  C    0.021672
    82  C    0.064132
    83  C    0.021682
    84  C    0.064453
    85  C    0.064565
    86  C    0.021431
    87  C    0.065020
    88  C    0.021317
    89  C    0.064356
    90  C    0.021761
    91  C    0.064565
    92  C    0.021432
    93  C    0.065020
    94  C    0.021317
    95  C    0.064356
    96  C    0.021761
    97  C   -0.026093
    98  C    0.003951
    99  C   -0.026482
   100  C    0.004305
   101  C   -0.026636
   102  C    0.004238
   103  C   -0.026094
   104  C    0.003951
   105  C   -0.026482
   106  C    0.004306
   107  C   -0.026636
   108  C    0.004237
   109  C   -0.050731
   110  C    0.042380
   111  C   -0.051081
   112  C    0.042538
   113  C   -0.050811
   114  C    0.042324
   115  C   -0.050731
   116  C    0.042380
   117  C   -0.051081
   118  C    0.042538
   119  C   -0.050811
   120  C    0.042323
   121  C   -0.013292
   122  C   -0.014493
   123  C   -0.013255
   124  C   -0.014623
   125  C   -0.013143
   126  C   -0.014689
   127  C   -0.013292
   128  C   -0.014493
   129  C   -0.013255
   130  C   -0.014623
   131  C   -0.013143
   132  C   -0.014689
   133  C    0.006944
   134  C    0.021876
   135  C    0.006978
   136  C    0.021850
   137  C    0.006963
   138  C    0.021946
   139  C    0.006944
   140  C    0.021876
   141  C    0.006978
   142  C    0.021850
   143  C    0.006963
   144  C    0.021946
   145  C    0.061546
   146  C   -0.251234
   147  C    0.061582
   148  C   -0.251245
   149  C    0.061480
   150  C   -0.251214
   151  C    0.061546
   152  C   -0.251234
   153  C    0.061582
   154  C   -0.251245
   155  C    0.061480
   156  C   -0.251214
   157  C   -0.222590
   158  C   -0.238224
   159  C   -0.222657
   160  C   -0.238175
   161  C   -0.222624
   162  C   -0.238203
   163  C   -0.222590
   164  C   -0.238224
   165  C   -0.222657
   166  C   -0.238175
   167  C   -0.222624
   168  C   -0.238204
   169  H    0.191993
   170  H    0.200995
   171  H    0.191989
   172  H    0.200993
   173  H    0.191991
   174  H    0.200992
   175  H    0.191993
   176  H    0.200995
   177  H    0.191989
   178  H    0.200993
   179  H    0.191991
   180  H    0.200992
   181  H    0.201145
   182  H    0.201141
   183  H    0.201141
   184  H    0.201145
   185  H    0.201141
   186  H    0.201141
   187  H    0.201152
   188  H    0.201143
   189  H    0.201148
   190  H    0.201152
   191  H    0.201143
   192  H    0.201148
   193  H    0.200989
   194  H    0.191989
   195  H    0.200998
   196  H    0.191989
   197  H    0.200987
   198  H    0.191992
   199  H    0.200989
   200  H    0.191989
   201  H    0.200998
   202  H    0.191989
   203  H    0.200987
   204  H    0.191992
 Sum of Mulliken charges =  -0.00000

 Dipole moment (field-independent basis, Debye):
    X=              0.0000    Y=             -0.0000    Z=              0.0000  Tot=              0.0000
 Quadrupole moment (field-independent basis, Debye-Ang):
   XX=           -963.0804   YY=           -963.0855   ZZ=           -765.3653
   XY=              0.0004   XZ=              0.0000   YZ=              0.0000

 Normal termination of Gaussian 16 at Tue Jul  8 16:37:19 2025.
