 Gaussian 16, Revision B.01,
 Gaussian 16:  ES64L-G16RevB.01 20-Dec-2017

 ------------------------------------
 # B3LYP/6-311G* Pop=Hirshfeld NOSYMM
 ------------------------------------

 ----------------------------
 From ../../cnt_8_5-1_opt.out
 ----------------------------
 Symbolic Z-matrix:
 Charge =  0 Multiplicity = 1

                          Input orientation:
 ---------------------------------------------------------------------
 Center     Atomic      Atomic             Coordinates (Angstroms)
 Number     Number       Type             X           Y           Z
 ---------------------------------------------------------------------
      1          6           0        4.437195    0.331476    2.420584
      2          6           0        4.328313   -1.082625    2.601295
      3          6           0        3.928709    2.203043    0.935300
      4          6           0        4.377820    0.886433    1.105534
      5          6           0        4.410941    0.657172    4.863950
      6          6           0        4.402030   -0.753104    5.051843
      7          6           0        3.714065    2.482079    3.345817
      8          6           0        4.283198    1.191799    3.539647
      9          6           0        2.328247    3.893801    1.846038
     10          6           0        3.412313    2.940801    2.018870
     11          6           0        0.488863    4.573773    0.388873
     12          6           0        1.809800    4.255632    0.560419
     13          6           0        4.378300    0.975448    7.306506
     14          6           0        4.465423   -0.433869    7.494323
     15          6           0        3.541616    2.746169    5.803211
     16          6           0        4.219893    1.502530    5.989731
     17          6           0        2.033810    3.980939    4.303183
     18          6           0        3.171794    3.155230    4.485062
     19          6           0        0.142581    4.488431    2.805081
     20          6           0        1.535865    4.210345    2.977801
     21          6           0       -1.784802    4.212293    1.326384
     22          6           0       -0.421261    4.511848    1.494586
     23          6           0        4.303736    1.289495    9.754354
     24          6           0        4.497866   -0.115438    9.942335
     25          6           0        3.340749    2.988807    8.251087
     26          6           0        4.108262    1.804597    8.436441
     27          6           0        1.747977    4.126602    6.747593
     28          6           0        2.947896    3.377028    6.930880
     29          6           0       -0.177138    4.475791    5.249454
     30          6           0        1.226785    4.305067    5.431231
     31          6           0       -2.071254    3.999286    3.732338
     32          6           0       -0.726232    4.419561    3.926780
     33          6           0       -3.634401    2.788646    2.227933
     34          6           0       -2.566799    3.768481    2.405130
     35          6           0       -4.502511    1.039653    0.765558
     36          6           0       -4.060982    2.328838    0.949930
     37          6           0        4.191029    1.580900   12.201316
     38          6           0        4.499626    0.205927   12.395720
     39          6           0        3.115222    3.214987   10.696919
     40          6           0        3.965125    2.084556   10.878660
     41          6           0        1.450755    4.241263    9.197275
     42          6           0        2.699986    3.577051    9.380559
     43          6           0       -0.491217    4.459748    7.691676
     44          6           0        0.918119    4.387344    7.877048
     45          6           0       -2.348779    3.837160    6.185722
     46          6           0       -1.035016    4.371495    6.373744
     47          6           0       -3.740410    2.477850    4.679692
     48          6           0       -2.798066    3.522502    4.868002
     49          6           0       -4.431537    0.652657    3.159479
     50          6           0       -4.018481    2.012027    3.348960
     51          6           0       -4.297792   -1.304874    1.657011
     52          6           0       -4.515027    0.108467    1.845757
     53          6           0       -3.359594   -3.018394    0.189326
     54          6           0       -4.132671   -1.903575    0.362824
     55          6           0        4.118483    1.891035   14.633532
     56          6           0        4.540949    0.560424   14.801677
     57          6           0        2.878548    3.435095   13.150385
     58          6           0        3.816232    2.367670   13.323056
     59          6           0        1.146656    4.323976   11.643102
     60          6           0        2.430851    3.751578   11.824995
     61          6           0       -0.808628    4.405359   10.138391
     62          6           0        0.607517    4.439748   10.324941
     63          6           0       -2.608455    3.650027    8.633738
     64          6           0       -1.344285    4.279062    8.821600
     65          6           0       -3.916518    2.202174    7.121732
     66          6           0       -3.039192    3.309851    7.311163
     67          6           0       -4.466040    0.329609    5.615620
     68          6           0       -4.151078    1.710741    5.803989
     69          6           0       -4.148025   -1.585741    4.108485
     70          6           0       -4.452470   -0.215570    4.295747
     71          6           0       -3.068473   -3.215477    2.610016
     72          6           0       -3.921788   -2.080896    2.785682
     73          6           0       -1.449031   -4.296049    1.133306
     74          6           0       -2.655949   -3.598169    1.298194
     75          6           0        2.780543    3.694664   15.567792
     76          6           0        3.716792    2.710025   15.739296
     77          6           0        0.840612    4.424899   14.109297
     78          6           0        2.207969    3.962720   14.282161
     79          6           0       -1.109452    4.304786   12.588459
     80          6           0        0.292522    4.456922   12.782331
     81          6           0       -2.853266    3.435478   11.076201
     82          6           0       -1.636332    4.148210   11.264141
     83          6           0       -4.066264    1.907306    9.569771
     84          6           0       -3.263645    3.074954    9.758926
     85          6           0       -4.487612    0.006900    8.059041
     86          6           0       -4.266984    1.399343    8.248710
     87          6           0       -4.047867   -1.898983    6.552367
     88          6           0       -4.447297   -0.539281    6.738222
     89          6           0       -2.836781   -3.433999    5.054969
     90          6           0       -3.767157   -2.372049    5.237685
     91          6           0       -1.106721   -4.348888    3.542378
     92          6           0       -2.385602   -3.754972    3.732585
     93          6           0        0.868549   -4.508418    2.045882
     94          6           0       -0.579344   -4.507774    2.217811
     95          6           0        2.691918   -3.805332    0.586176
     96          6           0        1.499265   -4.462879    0.769064
     97          6           0       -1.421347    4.234081   15.022540
     98          6           0       -0.056564    4.503352   15.192829
     99          6           0       -3.101920    3.206933   13.526724
    100          6           0       -1.931597    4.008052   13.707479
    101          6           0       -4.185409    1.603448   12.012382
    102          6           0       -3.467924    2.809384   12.202580
    103          6           0       -4.485872   -0.322508   10.503590
    104          6           0       -4.359687    1.087744   10.691469
    105          6           0       -3.916300   -2.189388    9.001548
    106          6           0       -4.408755   -0.863818    9.187060
    107          6           0       -2.604144   -3.641298    7.497366
    108          6           0       -3.608025   -2.648461    7.680912
    109          6           0       -0.800271   -4.417294    5.998389
    110          6           0       -2.134653   -3.935703    6.182382
    111          6           0        1.147668   -4.343861    4.497721
    112          6           0       -0.251962   -4.485187    4.681761
    113          6           0        2.890162   -3.459379    2.980524
    114          6           0        1.671610   -4.190274    3.168791
    115          6           0        4.097071   -1.917597    1.474984
    116          6           0        3.319618   -3.114771    1.666320
    117          6           0        4.529406   -0.018435   -0.000163
    118          6           0        4.374192   -1.364619    0.178294
    119          6           0       -3.369306    3.105914   15.949716
    120          6           0       -2.280899    3.913197   16.128198
    121          6           0       -4.357813    1.317575   14.461705
    122          6           0       -3.709662    2.589433   14.653034
    123          6           0       -4.464979   -0.647471   12.959294
    124          6           0       -4.441480    0.773300   13.147509
    125          6           0       -3.758498   -2.460777   11.446357
    126          6           0       -4.336006   -1.178023   11.630381
    127          6           0       -2.341209   -3.816481    9.945757
    128          6           0       -3.425553   -2.901713   10.129734
    129          6           0       -0.489690   -4.448779    8.447225
    130          6           0       -1.851511   -4.075926    8.630774
    131          6           0        1.456212   -4.249714    6.941027
    132          6           0        0.062018   -4.486157    7.126577
    133          6           0        3.121750   -3.231441    5.436560
    134          6           0        1.963533   -4.045851    5.624483
    135          6           0        4.167006   -1.598396    3.925446
    136          6           0        3.481158   -2.822619    4.115642
    137          6           0       -4.614863   -0.932950   15.359041
    138          6           0       -4.641922    0.428686   15.541878
    139          6           0       -3.614371   -2.755518   13.910312
    140          6           0       -4.338910   -1.501935   14.082228
    141          6           0       -2.059192   -3.943289   12.395568
    142          6           0       -3.213045   -3.132812   12.585754
    143          6           0       -0.170728   -4.448197   10.890459
    144          6           0       -1.555599   -4.173509   11.073194
    145          6           0        1.756558   -4.120856    9.389870
    146          6           0        0.379293   -4.454763    9.575764
    147          6           0        3.345395   -2.995495    7.879349
    148          6           0        2.249714   -3.882688    8.069037
    149          6           0        4.294928   -1.288770    6.369121
    150          6           0        3.684884   -2.567640    6.558270
    151          6           0       -1.788173   -4.098856   14.829963
    152          6           0       -2.996122   -3.402745   14.994833
    153          6           0        0.158756   -4.436406   13.342467
    154          6           0       -1.250470   -4.264758   13.518145
    155          6           0        2.039506   -3.963426   11.832361
    156          6           0        0.700685   -4.384816   12.019646
    157          6           0        3.557039   -2.739315   10.324071
    158          6           0        2.518396   -3.702572   10.512468
    159          6           0        4.386116   -0.976979    8.816883
    160          6           0        3.865370   -2.290511    9.006317
    161          6           0        0.417790   -4.530243   15.765330
    162          6           0       -0.934216   -4.418210   15.938837
    163          6           0        2.351436   -3.855444   14.282350
    164          6           0        1.018830   -4.373953   14.471134
    165          6           0        3.751835   -2.473913   12.779075
    166          6           0        2.780970   -3.511154   12.968603
    167          6           0        4.450013   -0.661887   11.260038
    168          6           0        4.016277   -2.000239   11.448338
    169          6           0        4.047784   -2.352489   15.178067
    170          6           0        3.151794   -3.379207   15.362498
    171          6           0        4.547613   -0.338674   13.722894
    172          6           0        4.232674   -1.753149   13.900069
    173          1           0        3.771473    2.551878   -0.080323
    174          1           0        0.096541    4.750773   -0.609465
    175          1           0        2.452672    4.192945   -0.312095
    176          1           0       -2.150774    4.102510    0.310400
    177          1           0       -4.714695    0.701916   -0.243524
    178          1           0       -3.943164    2.968433    0.080586
    179          1           0       -3.172009   -3.400856   -0.810942
    180          1           0       -4.556437   -1.416174   -0.509566
    181          1           0        4.628893    0.188589   15.817663
    182          1           0       -1.097029   -4.454825    0.118893
    183          1           0        2.404653    4.219900   16.440333
    184          1           0        4.066247    2.458768   16.737633
    185          1           0        3.082209   -3.704465   -0.421222
    186          1           0        0.986763   -4.865736   -0.099156
    187          1           0        0.324094    4.541795   16.208471
    188          1           0        4.645349    0.389153   -1.001376
    189          1           0        4.375040   -2.014923   -0.690815
    190          1           0       -3.933013    2.781635   16.818811
    191          1           0       -1.985873    4.217375   17.129414
    192          1           0       -4.707342   -1.578223   16.227285
    193          1           0       -4.749772    0.817135   16.549268
    194          1           0       -3.309670   -3.177254   16.009222
    195          1           0        1.051763   -4.653493   16.637726
    196          1           0       -1.359211   -4.446954   16.939112
    197          1           0        4.543045   -1.930839   16.047347
    198          1           0        2.965424   -3.731842   16.371582
 ---------------------------------------------------------------------

 SCF Done:  E(RB3LYP) =  -6572.03244160     A.U. after   15 cycles

 Alpha  occ. eigenvalues --  -10.20759 -10.20759 -10.20749 -10.20749 -10.20740
 Alpha  occ. eigenvalues --  -10.20739 -10.20641 -10.20634 -10.20634 -10.20629
 Alpha  occ. eigenvalues --  -10.20628 -10.20627 -10.20614 -10.20613 -10.20612
 Alpha  occ. eigenvalues --  -10.20607 -10.20605 -10.20604 -10.20601 -10.20600
 Alpha  occ. eigenvalues --  -10.20599 -10.20597 -10.20595 -10.20590 -10.20588
 Alpha  occ. eigenvalues --  -10.20586 -10.20585 -10.20581 -10.20580 -10.20578
 Alpha  occ. eigenvalues --  -10.20572 -10.20569 -10.20568 -10.20565 -10.20564
 Alpha  occ. eigenvalues --  -10.20563 -10.20560 -10.20560 -10.20560 -10.20558
 Alpha  occ. eigenvalues --  -10.20556 -10.20556 -10.20553 -10.20553 -10.20553
 Alpha  occ. eigenvalues --  -10.20550 -10.20550 -10.20550 -10.20550 -10.20549
 Alpha  occ. eigenvalues --  -10.20547 -10.20547 -10.20544 -10.20544 -10.20543
 Alpha  occ. eigenvalues --  -10.20542 -10.20539 -10.20535 -10.20534 -10.20530
 Alpha  occ. eigenvalues --  -10.20529 -10.20526 -10.20525 -10.20522 -10.20521
 Alpha  occ. eigenvalues --  -10.20521 -10.20515 -10.20515 -10.20511 -10.20511
 Alpha  occ. eigenvalues --  -10.20509 -10.20509 -10.20508 -10.20507 -10.20505
 Alpha  occ. eigenvalues --  -10.20505 -10.20501 -10.20500 -10.20489 -10.20489
 Alpha  occ. eigenvalues --  -10.20487 -10.20486 -10.20484 -10.20484 -10.20480
 Alpha  occ. eigenvalues --  -10.20480 -10.20477 -10.20477 -10.20473 -10.20473
 Alpha  occ. eigenvalues --  -10.20472 -10.20472 -10.20468 -10.20468 -10.20457
 Alpha  occ. eigenvalues --  -10.20457 -10.20456 -10.20456 -10.20452 -10.20451
 Alpha  occ. eigenvalues --  -10.20447 -10.20447 -10.20443 -10.20443 -10.20426
 Alpha  occ. eigenvalues --  -10.20426 -10.20424 -10.20423 -10.20423 -10.20423
 Alpha  occ. eigenvalues --  -10.20415 -10.20415 -10.20413 -10.20413 -10.20409
 Alpha  occ. eigenvalues --  -10.20409 -10.20406 -10.20406 -10.20405 -10.20405
 Alpha  occ. eigenvalues --  -10.20393 -10.20393 -10.20391 -10.20391 -10.20368
 Alpha  occ. eigenvalues --  -10.20368 -10.20362 -10.20361 -10.20361 -10.20361
 Alpha  occ. eigenvalues --  -10.20326 -10.20326 -10.20318 -10.20317 -10.20215
 Alpha  occ. eigenvalues --  -10.20214 -10.20208 -10.20207 -10.20195 -10.20194
 Alpha  occ. eigenvalues --  -10.20171 -10.20170 -10.20164 -10.20164 -10.20150
 Alpha  occ. eigenvalues --  -10.20150 -10.19376 -10.19376 -10.19364 -10.19364
 Alpha  occ. eigenvalues --  -10.19356 -10.19356 -10.19349 -10.19349 -10.19339
 Alpha  occ. eigenvalues --  -10.19339 -10.19333 -10.19332 -10.19328 -10.19328
 Alpha  occ. eigenvalues --  -10.19327 -10.19327 -10.19272 -10.19272 -10.19269
 Alpha  occ. eigenvalues --  -10.19269 -10.19260 -10.19259 -10.19259 -10.19259
 Alpha  occ. eigenvalues --  -10.19259 -10.19258  -0.94777  -0.94210  -0.94206
 Alpha  occ. eigenvalues --   -0.93564  -0.93007  -0.93005  -0.92513  -0.92501
 Alpha  occ. eigenvalues --   -0.91733  -0.91400  -0.91324  -0.91154  -0.91058
 Alpha  occ. eigenvalues --   -0.89741  -0.89734  -0.89636  -0.89559  -0.89211
 Alpha  occ. eigenvalues --   -0.88771  -0.88669  -0.88550  -0.88536  -0.87395
 Alpha  occ. eigenvalues --   -0.87226  -0.86666  -0.86570  -0.86189  -0.85953
 Alpha  occ. eigenvalues --   -0.85917  -0.85818  -0.85638  -0.84840  -0.84739
 Alpha  occ. eigenvalues --   -0.84639  -0.84448  -0.83951  -0.83720  -0.83280
 Alpha  occ. eigenvalues --   -0.83096  -0.82720  -0.82258  -0.81912  -0.81467
 Alpha  occ. eigenvalues --   -0.81301  -0.81203  -0.81168  -0.80769  -0.80739
 Alpha  occ. eigenvalues --   -0.80534  -0.80303  -0.80036  -0.80010  -0.78986
 Alpha  occ. eigenvalues --   -0.78736  -0.78509  -0.78409  -0.78216  -0.77858
 Alpha  occ. eigenvalues --   -0.77817  -0.77395  -0.77391  -0.76800  -0.76688
 Alpha  occ. eigenvalues --   -0.76077  -0.75982  -0.75928  -0.75919  -0.75497
 Alpha  occ. eigenvalues --   -0.75394  -0.75100  -0.74900  -0.74897  -0.74774
 Alpha  occ. eigenvalues --   -0.74607  -0.74247  -0.74052  -0.73679  -0.73613
 Alpha  occ. eigenvalues --   -0.73021  -0.72993  -0.72487  -0.72290  -0.71740
 Alpha  occ. eigenvalues --   -0.71613  -0.69521  -0.69460  -0.68286  -0.68096
 Alpha  occ. eigenvalues --   -0.68045  -0.67893  -0.67859  -0.67697  -0.67662
 Alpha  occ. eigenvalues --   -0.67560  -0.67185  -0.67145  -0.67103  -0.66899
 Alpha  occ. eigenvalues --   -0.66808  -0.65922  -0.65897  -0.65769  -0.65541
 Alpha  occ. eigenvalues --   -0.65211  -0.65053  -0.64509  -0.64332  -0.64321
 Alpha  occ. eigenvalues --   -0.64081  -0.64034  -0.63731  -0.63328  -0.62969
 Alpha  occ. eigenvalues --   -0.62609  -0.62498  -0.62354  -0.61664  -0.61625
 Alpha  occ. eigenvalues --   -0.61463  -0.61345  -0.60546  -0.60523  -0.60268
 Alpha  occ. eigenvalues --   -0.60194  -0.59793  -0.59204  -0.58950  -0.58861
 Alpha  occ. eigenvalues --   -0.58852  -0.58501  -0.58120  -0.57834  -0.57718
 Alpha  occ. eigenvalues --   -0.57366  -0.57306  -0.56173  -0.56108  -0.55791
 Alpha  occ. eigenvalues --   -0.55595  -0.55548  -0.55341  -0.55172  -0.55128
 Alpha  occ. eigenvalues --   -0.54877  -0.54721  -0.54720  -0.54504  -0.54141
 Alpha  occ. eigenvalues --   -0.53720  -0.53453  -0.53339  -0.53184  -0.52975
 Alpha  occ. eigenvalues --   -0.52767  -0.52551  -0.52521  -0.52518  -0.52116
 Alpha  occ. eigenvalues --   -0.51793  -0.51595  -0.51123  -0.51057  -0.50876
 Alpha  occ. eigenvalues --   -0.50828  -0.50475  -0.50405  -0.50341  -0.50144
 Alpha  occ. eigenvalues --   -0.49797  -0.49755  -0.49426  -0.49317  -0.49195
 Alpha  occ. eigenvalues --   -0.49036  -0.48603  -0.48421  -0.48159  -0.48077
 Alpha  occ. eigenvalues --   -0.47915  -0.47572  -0.47345  -0.47203  -0.47045
 Alpha  occ. eigenvalues --   -0.46949  -0.46857  -0.46731  -0.46658  -0.46649
 Alpha  occ. eigenvalues --   -0.46601  -0.46577  -0.46385  -0.46334  -0.46209
 Alpha  occ. eigenvalues --   -0.46063  -0.46023  -0.45990  -0.45847  -0.45714
 Alpha  occ. eigenvalues --   -0.45611  -0.45568  -0.45404  -0.45385  -0.45247
 Alpha  occ. eigenvalues --   -0.45220  -0.45189  -0.45118  -0.44921  -0.44905
 Alpha  occ. eigenvalues --   -0.44858  -0.44700  -0.44611  -0.44332  -0.44277
 Alpha  occ. eigenvalues --   -0.44213  -0.44094  -0.44042  -0.44039  -0.43913
 Alpha  occ. eigenvalues --   -0.43904  -0.43844  -0.43594  -0.43580  -0.43569
 Alpha  occ. eigenvalues --   -0.43419  -0.43334  -0.43163  -0.43046  -0.43041
 Alpha  occ. eigenvalues --   -0.42957  -0.42901  -0.42542  -0.42420  -0.42299
 Alpha  occ. eigenvalues --   -0.42188  -0.42137  -0.42097  -0.42030  -0.41977
 Alpha  occ. eigenvalues --   -0.41888  -0.41887  -0.41879  -0.41620  -0.41605
 Alpha  occ. eigenvalues --   -0.41554  -0.41426  -0.41159  -0.41069  -0.40861
 Alpha  occ. eigenvalues --   -0.40696  -0.40673  -0.40631  -0.40595  -0.40572
 Alpha  occ. eigenvalues --   -0.40330  -0.40194  -0.40045  -0.39534  -0.39469
 Alpha  occ. eigenvalues --   -0.38703  -0.38665  -0.38442  -0.38392  -0.38333
 Alpha  occ. eigenvalues --   -0.38311  -0.38233  -0.37885  -0.37824  -0.37823
 Alpha  occ. eigenvalues --   -0.37766  -0.37573  -0.37523  -0.37252  -0.37144
 Alpha  occ. eigenvalues --   -0.36977  -0.36936  -0.36805  -0.36725  -0.36630
 Alpha  occ. eigenvalues --   -0.36533  -0.36350  -0.36335  -0.35994  -0.35909
 Alpha  occ. eigenvalues --   -0.35811  -0.35806  -0.35748  -0.35701  -0.35510
 Alpha  occ. eigenvalues --   -0.34729  -0.34720  -0.34680  -0.34526  -0.34480
 Alpha  occ. eigenvalues --   -0.34334  -0.34284  -0.34253  -0.34065  -0.34051
 Alpha  occ. eigenvalues --   -0.33997  -0.33826  -0.33203  -0.33085  -0.32957
 Alpha  occ. eigenvalues --   -0.32881  -0.32848  -0.32779  -0.32551  -0.32301
 Alpha  occ. eigenvalues --   -0.32057  -0.32053  -0.31879  -0.31350  -0.31271
 Alpha  occ. eigenvalues --   -0.31087  -0.31041  -0.30518  -0.30370  -0.30315
 Alpha  occ. eigenvalues --   -0.30271  -0.30069  -0.30033  -0.29217  -0.29066
 Alpha  occ. eigenvalues --   -0.28749  -0.28655  -0.28218  -0.27529  -0.27508
 Alpha  occ. eigenvalues --   -0.27266  -0.27149  -0.27043  -0.26969  -0.26808
 Alpha  occ. eigenvalues --   -0.26738  -0.25756  -0.25623  -0.25432  -0.25259
 Alpha  occ. eigenvalues --   -0.25259  -0.24965  -0.24927  -0.24891  -0.24672
 Alpha  occ. eigenvalues --   -0.24001  -0.23897  -0.23838  -0.23369  -0.22556
 Alpha  occ. eigenvalues --   -0.22505  -0.21811  -0.21770  -0.21394  -0.21283
 Alpha  occ. eigenvalues --   -0.20006  -0.19726  -0.17079  -0.16872
 Alpha virt. eigenvalues --   -0.11936  -0.11693  -0.09161  -0.08888  -0.08024
 Alpha virt. eigenvalues --   -0.07971  -0.07133  -0.07117  -0.06791  -0.06707
 Alpha virt. eigenvalues --   -0.06414  -0.06287  -0.06264  -0.06091  -0.05960

 Mulliken charges:
               1
     1  C    0.004609
     2  C   -0.020278
     3  C   -0.242457
     4  C    0.056915
     5  C    0.031677
     6  C   -0.004520
     7  C    0.034263
     8  C   -0.041537
     9  C    0.037349
    10  C    0.001606
    11  C   -0.231895
    12  C   -0.231190
    13  C    0.002707
    14  C   -0.003325
    15  C    0.026661
    16  C   -0.011227
    17  C    0.014023
    18  C   -0.023496
    19  C    0.011226
    20  C   -0.027294
    21  C   -0.240744
    22  C    0.055008
    23  C   -0.006474
    24  C    0.025406
    25  C    0.004128
    26  C   -0.007522
    27  C    0.000852
    28  C   -0.002751
    29  C    0.028889
    30  C    0.008498
    31  C    0.028541
    32  C   -0.045972
    33  C    0.050902
    34  C    0.003178
    35  C   -0.211057
    36  C   -0.242482
    37  C   -0.045861
    38  C    0.028618
    39  C    0.008824
    40  C    0.028854
    41  C   -0.002644
    42  C    0.000733
    43  C   -0.007824
    44  C    0.004218
    45  C    0.024870
    46  C   -0.006114
    47  C    0.017295
    48  C   -0.020514
    49  C    0.035976
    50  C   -0.046673
    51  C    0.035992
    52  C   -0.004790
    53  C   -0.236070
    54  C   -0.223211
    55  C    0.055084
    56  C   -0.240790
    57  C   -0.027021
    58  C    0.011055
    59  C   -0.023353
    60  C    0.013637
    61  C   -0.011248
    62  C    0.026526
    63  C   -0.003362
    64  C    0.002882
    65  C   -0.002444
    66  C   -0.000907
    67  C    0.026668
    68  C    0.003755
    69  C    0.025715
    70  C   -0.036209
    71  C    0.005463
    72  C   -0.020850
    73  C   -0.241934
    74  C    0.058541
    75  C   -0.231158
    76  C   -0.231903
    77  C    0.001679
    78  C    0.037192
    79  C   -0.041587
    80  C    0.034275
    81  C   -0.004421
    82  C    0.031753
    83  C   -0.004244
    84  C    0.014999
    85  C   -0.002142
    86  C   -0.002971
    87  C    0.014392
    88  C   -0.005642
    89  C    0.030156
    90  C   -0.001626
    91  C    0.031055
    92  C   -0.041320
    93  C    0.051220
    94  C    0.001593
    95  C   -0.210564
    96  C   -0.243841
    97  C    0.056871
    98  C   -0.242437
    99  C   -0.020308
   100  C    0.004630
   101  C   -0.036665
   102  C    0.026445
   103  C    0.003547
   104  C    0.024947
   105  C    0.000374
   106  C   -0.002530
   107  C   -0.002001
   108  C   -0.002898
   109  C    0.024347
   110  C   -0.008063
   111  C    0.016783
   112  C   -0.021317
   113  C    0.036879
   114  C   -0.046019
   115  C    0.036196
   116  C   -0.006307
   117  C   -0.235748
   118  C   -0.223337
   119  C   -0.223370
   120  C   -0.235736
   121  C   -0.006443
   122  C    0.036294
   123  C   -0.046210
   124  C    0.037059
   125  C   -0.021637
   126  C    0.017127
   127  C   -0.008387
   128  C    0.024922
   129  C   -0.003000
   130  C   -0.001287
   131  C   -0.002523
   132  C    0.000782
   133  C    0.025117
   134  C    0.003784
   135  C    0.026524
   136  C   -0.036653
   137  C   -0.243853
   138  C   -0.210540
   139  C    0.001557
   140  C    0.051287
   141  C   -0.041126
   142  C    0.031088
   143  C   -0.001054
   144  C    0.029921
   145  C   -0.004876
   146  C    0.013813
   147  C   -0.002244
   148  C   -0.002707
   149  C    0.015279
   150  C   -0.004827
   151  C    0.058598
   152  C   -0.241926
   153  C   -0.020632
   154  C    0.005286
   155  C   -0.035862
   156  C    0.025286
   157  C    0.003751
   158  C    0.026156
   159  C   -0.001166
   160  C   -0.002780
   161  C   -0.223186
   162  C   -0.236094
   163  C   -0.004794
   164  C    0.035906
   165  C   -0.046924
   166  C    0.035965
   167  C   -0.020909
   168  C    0.017683
   169  C   -0.242498
   170  C   -0.211040
   171  C    0.003148
   172  C    0.051003
   173  H    0.197062
   174  H    0.195083
   175  H    0.203198
   176  H    0.196959
   177  H    0.195020
   178  H    0.201691
   179  H    0.194768
   180  H    0.201482
   181  H    0.196954
   182  H    0.196782
   183  H    0.203197
   184  H    0.195079
   185  H    0.195148
   186  H    0.202143
   187  H    0.197071
   188  H    0.194927
   189  H    0.201511
   190  H    0.201510
   191  H    0.194927
   192  H    0.202141
   193  H    0.195148
   194  H    0.196785
   195  H    0.201483
   196  H    0.194766
   197  H    0.201696
   198  H    0.195024
 Sum of Mulliken charges =  -0.00000

 Dipole moment (field-independent basis, Debye):
    X=             -0.0604    Y=             -0.1045    Z=              0.0002  Tot=              0.1207
 Quadrupole moment (field-independent basis, Debye-Ang):
   XX=           -977.4903   YY=           -978.6701   ZZ=           -756.5001
   XY=             -1.0237   XZ=              1.1469   YZ=             -1.7849

 Normal termination of Gaussian 16 at Wed Jul  9 01:35:58 2025.
