 Gaussian 16, Revision B.01,
 Gaussian 16:  ES64L-G16RevB.01 20-Dec-2017

 ------------------------------------
 # B3LYP/6-311G* Pop=Hirshfeld NOSYMM
 ------------------------------------

 ----------------------------
 From ../../cnt_7_4-1_opt.out
 ----------------------------
 Symbolic Z-matrix:
 Charge =  0 Multiplicity = 1

                          Input orientation:
 ---------------------------------------------------------------------
 Center     Atomic      Atomic             Coordinates (Angstroms)
 Number     Number       Type             X           Y           Z
 ---------------------------------------------------------------------
      1          6           0        3.759249    0.401466    2.417761
      2          6           0        3.646751   -1.007504    2.630750
      3          6           0        3.147055    2.204861    0.888650
      4          6           0        3.677997    0.925287    1.089601
      5          6           0        3.715654    0.778526    4.853605
      6          6           0        3.743303   -0.628599    5.072004
      7          6           0        2.878803    2.508353    3.293980
      8          6           0        3.564589    1.278930    3.518689
      9          6           0        1.319727    3.662490    1.747864
     10          6           0        2.539023    2.904036    1.954698
     11          6           0       -0.584578    3.880555    0.235487
     12          6           0        0.766818    3.909911    0.445550
     13          6           0        3.636126    1.142179    7.292141
     14          6           0        3.806607   -0.259949    7.510721
     15          6           0        2.623974    2.776032    5.743050
     16          6           0        3.446497    1.630034    5.961521
     17          6           0        0.949175    3.699753    4.195271
     18          6           0        2.223274    3.111135    4.412303
     19          6           0       -0.965641    3.696552    2.643244
     20          6           0        0.445422    3.802301    2.856394
     21          6           0       -2.646814    2.807701    1.109171
     22          6           0       -1.471962    3.545073    1.315546
     23          6           0        3.487629    1.479311    9.732393
     24          6           0        3.814245    0.110466    9.957093
     25          6           0        2.327288    3.008523    8.182515
     26          6           0        3.259394    1.950810    8.398759
     27          6           0        0.572721    3.778357    6.631026
     28          6           0        1.902025    3.308300    6.850526
     29          6           0       -1.332049    3.578247    5.077351
     30          6           0        0.055978    3.819510    5.298083
     31          6           0       -2.902943    2.482108    3.510710
     32          6           0       -1.800567    3.355471    3.741092
     33          6           0       -3.786633    0.758221    1.959370
     34          6           0       -3.234931    2.086445    2.169065
     35          6           0       -3.701308   -1.160685    0.451600
     36          6           0       -3.933648    0.172879    0.658106
     37          6           0        3.347824    1.821607   12.159014
     38          6           0        3.819338    0.513046   12.358483
     39          6           0        2.006947    3.224166   10.625293
     40          6           0        3.044557    2.260224   10.834414
     41          6           0        0.193941    3.813769    9.068044
     42          6           0        1.554213    3.468613    9.286519
     43          6           0       -1.685030    3.436736    7.513639
     44          6           0       -0.325324    3.811885    7.736624
     45          6           0       -3.138526    2.187641    5.957304
     46          6           0       -2.133794    3.177539    6.180264
     47          6           0       -3.781141    0.388258    4.407506
     48          6           0       -3.399822    1.738845    4.625905
     49          6           0       -3.480131   -1.506704    2.859677
     50          6           0       -3.796052   -0.126079    3.068758
     51          6           0       -2.354350   -3.051198    1.335575
     52          6           0       -3.252026   -1.988731    1.535080
     53          6           0        1.816660    3.492744   13.035960
     54          6           0        2.855251    2.624596   13.242515
     55          6           0       -0.189669    3.844882   11.524878
     56          6           0        1.236415    3.658304   11.734648
     57          6           0       -2.005772    3.237263    9.952782
     58          6           0       -0.698245    3.755165   10.183209
     59          6           0       -3.335887    1.861341    8.395854
     60          6           0       -2.432899    2.942787    8.616533
     61          6           0       -3.816269    0.006978    6.843509
     62          6           0       -3.558699    1.393242    7.062937
     63          6           0       -3.319229   -1.847306    5.295327
     64          6           0       -3.769256   -0.511247    5.511546
     65          6           0       -2.002901   -3.247903    3.736930
     66          6           0       -3.025058   -2.280698    3.961685
     67          6           0       -0.170223   -3.899110    2.192174
     68          6           0       -1.566276   -3.531806    2.397977
     69          6           0        1.717711   -3.559483    0.686283
     70          6           0        0.430715   -3.990351    0.901292
     71          6           0       -2.334514    3.047787   12.378322
     72          6           0       -1.108447    3.696449   12.584721
     73          6           0       -3.515778    1.515676   10.837545
     74          6           0       -2.718783    2.684926   11.050631
     75          6           0       -3.805849   -0.369763    9.281761
     76          6           0       -3.678614    1.027954    9.498713
     77          6           0       -3.134839   -2.169637    7.732535
     78          6           0       -3.716127   -0.884360    7.951012
     79          6           0       -1.678206   -3.426586    6.183292
     80          6           0       -2.807282   -2.577888    6.401917
     81          6           0        0.197867   -3.808912    4.635693
     82          6           0       -1.195094   -3.626991    4.853707
     83          6           0        2.028464   -3.238861    3.072631
     84          6           0        0.709857   -3.757277    3.294862
     85          6           0        3.359544   -1.853266    1.523405
     86          6           0        2.469522   -2.961513    1.745397
     87          6           0        3.846981   -0.004965    0.004273
     88          6           0        3.664295   -1.342724    0.213377
     89          6           0       -3.769718    1.291267   13.248373
     90          6           0       -3.068790    2.447068   13.458375
     91          6           0       -3.784043   -0.746568   11.739354
     92          6           0       -3.831688    0.688589   11.946108
     93          6           0       -2.889669   -2.447461   10.175396
     94          6           0       -3.611366   -1.238781   10.400105
     95          6           0       -1.327207   -3.555999    8.621996
     96          6           0       -2.531956   -2.828492    8.840444
     97          6           0        0.577932   -3.773207    7.071552
     98          6           0       -0.832280   -3.718599    7.291465
     99          6           0        2.338073   -3.018421    5.518545
    100          6           0        1.083165   -3.663294    5.739546
    101          6           0        3.482492   -1.492318    3.966501
    102          6           0        2.715551   -2.665942    4.187735
    103          6           0       -2.639926   -2.722341   12.604480
    104          6           0       -3.482474   -1.622616   12.805427
    105          6           0       -0.950703   -3.662090   11.063268
    106          6           0       -2.227078   -3.054818   11.276314
    107          6           0        0.951053   -3.684732    9.506159
    108          6           0       -0.448796   -3.762128    9.727471
    109          6           0        2.630968   -2.769735    7.954353
    110          6           0        1.445035   -3.534016    8.175349
    111          6           0        3.636636   -1.138535    6.402513
    112          6           0        2.978776   -2.387118    6.622356
    113          6           0       -0.668925   -3.844521   13.480670
    114          6           0       -1.918705   -3.333665   13.689821
    115          6           0        1.330239   -3.619817   11.948471
    116          6           0       -0.074544   -3.836232   12.170568
    117          6           0        2.899145   -2.493636   10.399025
    118          6           0        1.790836   -3.376384   10.621228
    119          6           0        3.738680   -0.778611    8.840278
    120          6           0        3.199774   -2.075922    9.058232
    121          6           0        3.240707   -2.368683   12.792570
    122          6           0        2.224201   -3.267960   13.007529
    123          6           0        3.841705   -0.409688   11.296024
    124          6           0        3.461938   -1.802401   11.501742
    125          1           0        2.963788    2.517730   -0.134388
    126          1           0       -0.982915    3.963938   -0.772615
    127          1           0        1.432530    4.024567   -0.404831
    128          1           0       -2.923902    2.582811    0.084071
    129          1           0       -3.712286   -1.566238   -0.557025
    130          1           0       -4.134011    0.812424   -0.196419
    131          1           0        3.893998    0.159093   13.381988
    132          1           0       -2.085067   -3.292701    0.312067
    133          1           0        1.362871    3.985969   13.890470
    134          1           0        3.211823    2.431177   14.251158
    135          1           0        2.097394   -3.533319   -0.330087
    136          1           0       -0.168574   -4.296832    0.048921
    137          1           0       -0.775150    3.823917   13.609829
    138          1           0        3.975321    0.378197   -1.005025
    139          1           0        3.655059   -2.016413   -0.638209
    140          1           0       -4.201894    0.772139   14.098773
    141          1           0       -2.941975    2.833841   14.466454
    142          1           0       -3.661665   -1.307408   13.828469
    143          1           0       -0.080791   -4.173165   14.332277
    144          1           0       -2.314530   -3.252934   14.699163
    145          1           0        3.805929   -2.003122   13.644915
    146          1           0        2.011904   -3.583988   14.023850
 ---------------------------------------------------------------------

 SCF Done:  E(RB3LYP) =  -4739.71181392     A.U. after   16 cycles

 Alpha  occ. eigenvalues --  -10.20765 -10.20765 -10.20751 -10.20751 -10.20742
 Alpha  occ. eigenvalues --  -10.20741 -10.20593 -10.20592 -10.20586 -10.20585
 Alpha  occ. eigenvalues --  -10.20578 -10.20576 -10.20576 -10.20576 -10.20566
 Alpha  occ. eigenvalues --  -10.20564 -10.20562 -10.20562 -10.20561 -10.20560
 Alpha  occ. eigenvalues --  -10.20558 -10.20556 -10.20551 -10.20548 -10.20544
 Alpha  occ. eigenvalues --  -10.20543 -10.20538 -10.20537 -10.20535 -10.20534
 Alpha  occ. eigenvalues --  -10.20533 -10.20523 -10.20521 -10.20517 -10.20517
 Alpha  occ. eigenvalues --  -10.20511 -10.20509 -10.20508 -10.20506 -10.20505
 Alpha  occ. eigenvalues --  -10.20504 -10.20494 -10.20492 -10.20486 -10.20486
 Alpha  occ. eigenvalues --  -10.20485 -10.20484 -10.20483 -10.20476 -10.20475
 Alpha  occ. eigenvalues --  -10.20471 -10.20471 -10.20471 -10.20470 -10.20468
 Alpha  occ. eigenvalues --  -10.20464 -10.20463 -10.20458 -10.20456 -10.20456
 Alpha  occ. eigenvalues --  -10.20450 -10.20447 -10.20444 -10.20443 -10.20435
 Alpha  occ. eigenvalues --  -10.20435 -10.20431 -10.20431 -10.20422 -10.20421
 Alpha  occ. eigenvalues --  -10.20419 -10.20418 -10.20409 -10.20408 -10.20401
 Alpha  occ. eigenvalues --  -10.20401 -10.20398 -10.20397 -10.20396 -10.20396
 Alpha  occ. eigenvalues --  -10.20380 -10.20380 -10.20356 -10.20356 -10.20350
 Alpha  occ. eigenvalues --  -10.20350 -10.20350 -10.20350 -10.20308 -10.20308
 Alpha  occ. eigenvalues --  -10.20207 -10.20207 -10.20196 -10.20196 -10.20188
 Alpha  occ. eigenvalues --  -10.20188 -10.20165 -10.20165 -10.20154 -10.20154
 Alpha  occ. eigenvalues --  -10.20147 -10.20147 -10.19391 -10.19391 -10.19363
 Alpha  occ. eigenvalues --  -10.19363 -10.19359 -10.19358 -10.19348 -10.19348
 Alpha  occ. eigenvalues --  -10.19346 -10.19346 -10.19339 -10.19339 -10.19329
 Alpha  occ. eigenvalues --  -10.19329 -10.19243 -10.19242 -10.19233 -10.19233
 Alpha  occ. eigenvalues --  -10.19230 -10.19230 -10.19230 -10.19230  -0.94659
 Alpha  occ. eigenvalues --   -0.93853  -0.93848  -0.93028  -0.92250  -0.92240
 Alpha  occ. eigenvalues --   -0.91473  -0.91421  -0.90592  -0.90046  -0.89967
 Alpha  occ. eigenvalues --   -0.89837  -0.89516  -0.87650  -0.87621  -0.87599
 Alpha  occ. eigenvalues --   -0.87589  -0.87208  -0.86660  -0.86384  -0.86023
 Alpha  occ. eigenvalues --   -0.85943  -0.84477  -0.84362  -0.83659  -0.83579
 Alpha  occ. eigenvalues --   -0.83364  -0.82876  -0.82391  -0.82346  -0.82141
 Alpha  occ. eigenvalues --   -0.80838  -0.80813  -0.80735  -0.80528  -0.80251
 Alpha  occ. eigenvalues --   -0.79988  -0.79434  -0.79009  -0.78182  -0.78108
 Alpha  occ. eigenvalues --   -0.77620  -0.76698  -0.76585  -0.76325  -0.76164
 Alpha  occ. eigenvalues --   -0.76159  -0.75939  -0.75844  -0.75650  -0.74876
 Alpha  occ. eigenvalues --   -0.74876  -0.74735  -0.74662  -0.73353  -0.72925
 Alpha  occ. eigenvalues --   -0.72909  -0.72787  -0.72610  -0.72254  -0.69807
 Alpha  occ. eigenvalues --   -0.69722  -0.67954  -0.67930  -0.67709  -0.67256
 Alpha  occ. eigenvalues --   -0.67167  -0.67130  -0.66822  -0.66724  -0.66564
 Alpha  occ. eigenvalues --   -0.66008  -0.65788  -0.65565  -0.65559  -0.65285
 Alpha  occ. eigenvalues --   -0.65186  -0.63873  -0.63718  -0.63477  -0.63395
 Alpha  occ. eigenvalues --   -0.62939  -0.61911  -0.61747  -0.61581  -0.61282
 Alpha  occ. eigenvalues --   -0.60900  -0.60807  -0.59913  -0.59772  -0.58998
 Alpha  occ. eigenvalues --   -0.58880  -0.58728  -0.57486  -0.57400  -0.57307
 Alpha  occ. eigenvalues --   -0.57283  -0.56944  -0.56641  -0.56172  -0.56129
 Alpha  occ. eigenvalues --   -0.55428  -0.55050  -0.54801  -0.54702  -0.54349
 Alpha  occ. eigenvalues --   -0.54266  -0.53827  -0.53567  -0.53298  -0.52176
 Alpha  occ. eigenvalues --   -0.52064  -0.51996  -0.51587  -0.51511  -0.51261
 Alpha  occ. eigenvalues --   -0.50850  -0.50804  -0.50419  -0.50206  -0.49792
 Alpha  occ. eigenvalues --   -0.49754  -0.49346  -0.49339  -0.49176  -0.48818
 Alpha  occ. eigenvalues --   -0.48791  -0.48450  -0.48447  -0.48223  -0.48085
 Alpha  occ. eigenvalues --   -0.47473  -0.47331  -0.47241  -0.47183  -0.46736
 Alpha  occ. eigenvalues --   -0.46457  -0.46341  -0.46308  -0.46298  -0.46117
 Alpha  occ. eigenvalues --   -0.45855  -0.45806  -0.45489  -0.45308  -0.45255
 Alpha  occ. eigenvalues --   -0.45207  -0.44925  -0.44710  -0.44564  -0.44512
 Alpha  occ. eigenvalues --   -0.44421  -0.44299  -0.44269  -0.44087  -0.44007
 Alpha  occ. eigenvalues --   -0.43999  -0.43720  -0.43667  -0.43571  -0.43449
 Alpha  occ. eigenvalues --   -0.43430  -0.43329  -0.43100  -0.43093  -0.42978
 Alpha  occ. eigenvalues --   -0.42793  -0.42719  -0.42559  -0.42369  -0.42242
 Alpha  occ. eigenvalues --   -0.42125  -0.42110  -0.41947  -0.41838  -0.41683
 Alpha  occ. eigenvalues --   -0.41309  -0.41281  -0.41141  -0.41082  -0.40912
 Alpha  occ. eigenvalues --   -0.40850  -0.40280  -0.39848  -0.39735  -0.39552
 Alpha  occ. eigenvalues --   -0.39301  -0.39300  -0.38705  -0.38400  -0.38188
 Alpha  occ. eigenvalues --   -0.37734  -0.37367  -0.37362  -0.37254  -0.37243
 Alpha  occ. eigenvalues --   -0.37149  -0.37114  -0.36818  -0.36791  -0.36682
 Alpha  occ. eigenvalues --   -0.36666  -0.36385  -0.35832  -0.35656  -0.35595
 Alpha  occ. eigenvalues --   -0.35558  -0.35340  -0.35241  -0.34883  -0.34834
 Alpha  occ. eigenvalues --   -0.34374  -0.34296  -0.33839  -0.33621  -0.33590
 Alpha  occ. eigenvalues --   -0.33500  -0.33427  -0.33145  -0.33126  -0.32935
 Alpha  occ. eigenvalues --   -0.32404  -0.32400  -0.32264  -0.31457  -0.31362
 Alpha  occ. eigenvalues --   -0.31321  -0.31114  -0.30494  -0.30406  -0.29785
 Alpha  occ. eigenvalues --   -0.29705  -0.29592  -0.29556  -0.29104  -0.28746
 Alpha  occ. eigenvalues --   -0.27600  -0.27193  -0.27102  -0.26769  -0.26295
 Alpha  occ. eigenvalues --   -0.26273  -0.25810  -0.25173  -0.25023  -0.25013
 Alpha  occ. eigenvalues --   -0.25000  -0.24820  -0.24735  -0.23385  -0.23319
 Alpha  occ. eigenvalues --   -0.22573  -0.22058  -0.21915  -0.21775  -0.21004
 Alpha  occ. eigenvalues --   -0.20558  -0.17128  -0.16955
 Alpha virt. eigenvalues --   -0.11515  -0.11307  -0.08143  -0.07645  -0.07473
 Alpha virt. eigenvalues --   -0.07127  -0.06980  -0.06674  -0.06184  -0.06096
 Alpha virt. eigenvalues --   -0.06065  -0.05532  -0.05526  -0.04929  -0.04879

 Mulliken charges:
               1
     1  C    0.016949
     2  C   -0.027712
     3  C   -0.235022
     4  C    0.051865
     5  C    0.027881
     6  C   -0.004253
     7  C    0.033258
     8  C   -0.040359
     9  C    0.049966
    10  C   -0.004247
    11  C   -0.225966
    12  C   -0.239900
    13  C   -0.006173
    14  C    0.014060
    15  C    0.019730
    16  C   -0.010232
    17  C    0.019351
    18  C   -0.020850
    19  C    0.022246
    20  C   -0.035655
    21  C   -0.234150
    22  C    0.047862
    23  C   -0.042549
    24  C    0.027818
    25  C    0.002809
    26  C    0.025986
    27  C   -0.004795
    28  C   -0.004385
    29  C    0.027209
    30  C    0.002272
    31  C    0.031700
    32  C   -0.044444
    33  C    0.049711
    34  C   -0.002780
    35  C   -0.227094
    36  C   -0.238078
    37  C    0.050663
    38  C   -0.233930
    39  C   -0.036493
    40  C    0.021415
    41  C   -0.020681
    42  C    0.020134
    43  C   -0.008955
    44  C    0.020059
    45  C    0.019911
    46  C   -0.009242
    47  C    0.019843
    48  C   -0.020462
    49  C    0.021577
    50  C   -0.036392
    51  C   -0.233877
    52  C    0.050592
    53  C   -0.238075
    54  C   -0.227082
    55  C   -0.002883
    56  C    0.049796
    57  C   -0.044372
    58  C    0.031759
    59  C    0.002605
    60  C    0.026882
    61  C   -0.004642
    62  C   -0.004740
    63  C    0.025886
    64  C    0.003134
    65  C    0.027917
    66  C   -0.042769
    67  C    0.061599
    68  C   -0.002262
    69  C   -0.206304
    70  C   -0.248180
    71  C    0.047821
    72  C   -0.234109
    73  C   -0.035459
    74  C    0.022246
    75  C   -0.020516
    76  C    0.018928
    77  C   -0.010605
    78  C    0.019759
    79  C    0.014204
    80  C   -0.005883
    81  C    0.020872
    82  C   -0.016085
    83  C    0.038261
    84  C   -0.049654
    85  C    0.045388
    86  C   -0.007952
    87  C   -0.230685
    88  C   -0.230543
    89  C   -0.239926
    90  C   -0.225966
    91  C   -0.004186
    92  C    0.049920
    93  C   -0.040186
    94  C    0.033046
    95  C   -0.004424
    96  C    0.028019
    97  C   -0.010786
    98  C    0.006382
    99  C    0.019679
   100  C    0.001307
   101  C    0.026556
   102  C   -0.032378
   103  C    0.051961
   104  C   -0.235008
   105  C   -0.027513
   106  C    0.016745
   107  C   -0.032479
   108  C    0.026546
   109  C    0.001554
   110  C    0.019661
   111  C    0.006358
   112  C   -0.010964
   113  C   -0.230465
   114  C   -0.230734
   115  C   -0.007843
   116  C    0.045260
   117  C   -0.049572
   118  C    0.038218
   119  C   -0.015878
   120  C    0.020690
   121  C   -0.248159
   122  C   -0.206369
   123  C   -0.002197
   124  C    0.061533
   125  H    0.194116
   126  H    0.196577
   127  H    0.204783
   128  H    0.194267
   129  H    0.196229
   130  H    0.204226
   131  H    0.194308
   132  H    0.194313
   133  H    0.204218
   134  H    0.196227
   135  H    0.193886
   136  H    0.203148
   137  H    0.194263
   138  H    0.196167
   139  H    0.202872
   140  H    0.204785
   141  H    0.196580
   142  H    0.194118
   143  H    0.202854
   144  H    0.196163
   145  H    0.203158
   146  H    0.193895
 Sum of Mulliken charges =  -0.00000

 Dipole moment (field-independent basis, Debye):
    X=              0.0849    Y=             -0.1464    Z=             -0.0001  Tot=              0.1692
 Quadrupole moment (field-independent basis, Debye-Ang):
   XX=           -709.7254   YY=           -708.9111   ZZ=           -550.7034
   XY=             -0.7143   XZ=              2.5251   YZ=              0.1175

 Normal termination of Gaussian 16 at Wed Jul  9 00:04:16 2025.
