 Gaussian 16, Revision B.01,
 Gaussian 16:  ES64L-G16RevB.01 20-Dec-2017

 ------------------------------------
 # B3LYP/6-311G* Pop=Hirshfeld NOSYMM
 ------------------------------------

 ----------------------------
 From ../../cnt_8_8-2_opt.out
 ----------------------------
 Symbolic Z-matrix:
 Charge =  0 Multiplicity = 1

                          Input orientation:
 ---------------------------------------------------------------------
 Center     Atomic      Atomic             Coordinates (Angstroms)
 Number     Number       Type             X           Y           Z
 ---------------------------------------------------------------------
      1          6           0        5.092744    2.114513    1.231837
      2          6           0        5.467404    0.715217    1.231798
      3          6           0        5.154153    2.088641    3.666344
      4          6           0        5.507763    0.768273    3.666315
      5          6           0        3.962375    3.901849    0.022964
      6          6           0        4.794670    2.817567    0.022953
      7          6           0        3.895782    3.902210    2.457485
      8          6           0        4.777825    2.753123    2.457471
      9          6           0        2.105699    5.095624    1.231816
     10          6           0        3.360330    4.371556    1.231854
     11          6           0        2.167309    5.120751    3.666339
     12          6           0        3.351185    4.437478    3.666374
     13          6           0        0.042649    5.560363    0.022879
     14          6           0        1.397817    5.381750    0.022889
     15          6           0       -0.004693    5.513850    2.457423
     16          6           0        1.431446    5.324519    2.457434
     17          6           0       -2.114512    5.092743    1.231837
     18          6           0       -0.715216    5.467404    1.231798
     19          6           0       -2.088640    5.154153    3.666344
     20          6           0       -0.768272    5.507763    3.666315
     21          6           0       -3.901848    3.962374    0.022964
     22          6           0       -2.817566    4.794669    0.022953
     23          6           0       -3.902209    3.895782    2.457485
     24          6           0       -2.753122    4.777824    2.457471
     25          6           0       -5.095623    2.105698    1.231816
     26          6           0       -4.371555    3.360330    1.231854
     27          6           0       -5.120749    2.167308    3.666339
     28          6           0       -4.437477    3.351184    3.666374
     29          6           0       -5.560362    0.042648    0.022879
     30          6           0       -5.381749    1.397817    0.022889
     31          6           0       -5.513849   -0.004694    2.457423
     32          6           0       -5.324518    1.431446    2.457434
     33          6           0       -5.092742   -2.114513    1.231837
     34          6           0       -5.467403   -0.715217    1.231798
     35          6           0       -5.154152   -2.088641    3.666344
     36          6           0       -5.507762   -0.768272    3.666315
     37          6           0       -3.962373   -3.901848    0.022964
     38          6           0       -4.794668   -2.817567    0.022953
     39          6           0       -3.895781   -3.902210    2.457485
     40          6           0       -4.777823   -2.753123    2.457471
     41          6           0       -2.105697   -5.095624    1.231816
     42          6           0       -3.360329   -4.371555    1.231854
     43          6           0       -2.167307   -5.120750    3.666339
     44          6           0       -3.351183   -4.437478    3.666374
     45          6           0       -0.042647   -5.560362    0.022879
     46          6           0       -1.397816   -5.381750    0.022888
     47          6           0        0.004695   -5.513850    2.457423
     48          6           0       -1.431445   -5.324519    2.457434
     49          6           0        2.114514   -5.092743    1.231837
     50          6           0        0.715218   -5.467404    1.231798
     51          6           0        2.088642   -5.154153    3.666344
     52          6           0        0.768273   -5.507763    3.666315
     53          6           0        3.901849   -3.962374    0.022964
     54          6           0        2.817568   -4.794669    0.022953
     55          6           0        3.902210   -3.895781    2.457485
     56          6           0        2.753124   -4.777824    2.457471
     57          6           0        5.095625   -2.105698    1.231816
     58          6           0        4.371556   -3.360329    1.231853
     59          6           0        5.120751   -2.167308    3.666339
     60          6           0        4.437479   -3.351184    3.666374
     61          6           0        5.560363   -0.042648    0.022879
     62          6           0        5.381750   -1.397816    0.022888
     63          6           0        5.513850    0.004694    2.457423
     64          6           0        5.324520   -1.431445    2.457434
     65          1           0        5.075523    2.606546    4.615921
     66          1           0        5.698507    0.280341    4.615868
     67          1           0        3.691427    4.350196   -0.926599
     68          1           0        5.157691    2.439891   -0.926615
     69          1           0        1.745324    5.431133    4.615906
     70          1           0        3.831005    4.227349    4.615962
     71          1           0       -0.465944    5.685647   -0.926710
     72          1           0        1.921529    5.370998   -0.926691
     73          1           0       -2.606546    5.075523    4.615921
     74          1           0       -0.280340    5.698507    4.615869
     75          1           0       -4.350194    3.691426   -0.926599
     76          1           0       -2.439890    5.157690   -0.926615
     77          1           0       -5.431132    1.745324    4.615906
     78          1           0       -4.227348    3.831005    4.615962
     79          1           0       -5.685646   -0.465945   -0.926710
     80          1           0       -5.370997    1.921528   -0.926690
     81          1           0       -5.075522   -2.606546    4.615921
     82          1           0       -5.698506   -0.280341    4.615869
     83          1           0       -3.691425   -4.350195   -0.926599
     84          1           0       -5.157689   -2.439891   -0.926615
     85          1           0       -1.745322   -5.431133    4.615906
     86          1           0       -3.831004   -4.227348    4.615962
     87          1           0        0.465945   -5.685646   -0.926710
     88          1           0       -1.921527   -5.370997   -0.926691
     89          1           0        2.606547   -5.075523    4.615921
     90          1           0        0.280342   -5.698507    4.615868
     91          1           0        4.350196   -3.691426   -0.926599
     92          1           0        2.439892   -5.157690   -0.926615
     93          1           0        5.431134   -1.745323    4.615906
     94          1           0        4.227349   -3.831005    4.615962
     95          1           0        5.685647    0.465945   -0.926711
     96          1           0        5.370998   -1.921528   -0.926691
 ---------------------------------------------------------------------

 SCF Done:  E(RB3LYP) =  -2458.63413128     A.U. after   12 cycles

 Alpha  occ. eigenvalues --  -10.19325 -10.19324 -10.19324 -10.19323 -10.19323
 Alpha  occ. eigenvalues --  -10.19320 -10.19320 -10.19316 -10.19316 -10.19310
 Alpha  occ. eigenvalues --  -10.19310 -10.19304 -10.19304 -10.19297 -10.19297
 Alpha  occ. eigenvalues --  -10.19292 -10.19282 -10.19277 -10.19277 -10.19270
 Alpha  occ. eigenvalues --  -10.19270 -10.19263 -10.19263 -10.19256 -10.19256
 Alpha  occ. eigenvalues --  -10.19251 -10.19251 -10.19248 -10.19247 -10.19245
 Alpha  occ. eigenvalues --  -10.19245 -10.19245 -10.18156 -10.18156 -10.18156
 Alpha  occ. eigenvalues --  -10.18156 -10.18155 -10.18155 -10.18155 -10.18155
 Alpha  occ. eigenvalues --  -10.18155 -10.18155 -10.18155 -10.18155 -10.18155
 Alpha  occ. eigenvalues --  -10.18154 -10.18154 -10.18154 -10.18091 -10.18091
 Alpha  occ. eigenvalues --  -10.18091 -10.18091 -10.18091 -10.18091 -10.18091
 Alpha  occ. eigenvalues --  -10.18091 -10.18091 -10.18091 -10.18091 -10.18091
 Alpha  occ. eigenvalues --  -10.18090 -10.18090 -10.18090 -10.18090  -0.90389
 Alpha  occ. eigenvalues --   -0.90032  -0.90032  -0.88970  -0.88970  -0.87224
 Alpha  occ. eigenvalues --   -0.87224  -0.84849  -0.84849  -0.82120  -0.82094
 Alpha  occ. eigenvalues --   -0.82094  -0.81838  -0.81838  -0.81156  -0.81156
 Alpha  occ. eigenvalues --   -0.78586  -0.78586  -0.77427  -0.77427  -0.76891
 Alpha  occ. eigenvalues --   -0.76890  -0.74714  -0.74714  -0.73687  -0.73687
 Alpha  occ. eigenvalues --   -0.72806  -0.72806  -0.71841  -0.71841  -0.71634
 Alpha  occ. eigenvalues --   -0.70791  -0.66392  -0.64679  -0.64679  -0.64263
 Alpha  occ. eigenvalues --   -0.64263  -0.63636  -0.63636  -0.63254  -0.63254
 Alpha  occ. eigenvalues --   -0.62669  -0.62669  -0.62660  -0.60470  -0.60470
 Alpha  occ. eigenvalues --   -0.59402  -0.59401  -0.56414  -0.56414  -0.54999
 Alpha  occ. eigenvalues --   -0.54999  -0.54349  -0.53822  -0.53822  -0.53426
 Alpha  occ. eigenvalues --   -0.51918  -0.51910  -0.51910  -0.51716  -0.51716
 Alpha  occ. eigenvalues --   -0.50671  -0.50670  -0.50651  -0.50651  -0.48271
 Alpha  occ. eigenvalues --   -0.48270  -0.47877  -0.47877  -0.47835  -0.47835
 Alpha  occ. eigenvalues --   -0.45507  -0.45507  -0.45172  -0.45062  -0.45062
 Alpha  occ. eigenvalues --   -0.44476  -0.44476  -0.43905  -0.43904  -0.43388
 Alpha  occ. eigenvalues --   -0.42860  -0.42618  -0.42618  -0.42528  -0.42528
 Alpha  occ. eigenvalues --   -0.42408  -0.42407  -0.41812  -0.41812  -0.41631
 Alpha  occ. eigenvalues --   -0.41631  -0.41139  -0.41139  -0.40796  -0.40796
 Alpha  occ. eigenvalues --   -0.40687  -0.40687  -0.40684  -0.40683  -0.40239
 Alpha  occ. eigenvalues --   -0.39871  -0.39871  -0.38875  -0.38875  -0.37017
 Alpha  occ. eigenvalues --   -0.37017  -0.36471  -0.36471  -0.35288  -0.35287
 Alpha  occ. eigenvalues --   -0.35038  -0.35038  -0.34053  -0.34053  -0.33783
 Alpha  occ. eigenvalues --   -0.33783  -0.33404  -0.33119  -0.32738  -0.32738
 Alpha  occ. eigenvalues --   -0.32201  -0.32201  -0.31722  -0.31722  -0.31678
 Alpha  occ. eigenvalues --   -0.31678  -0.31492  -0.29321  -0.29321  -0.27372
 Alpha  occ. eigenvalues --   -0.27372  -0.26841  -0.26840  -0.24973  -0.24973
 Alpha  occ. eigenvalues --   -0.22746  -0.22745  -0.22463  -0.22463  -0.21188
 Alpha  occ. eigenvalues --   -0.21188  -0.20635  -0.19963
 Alpha virt. eigenvalues --   -0.07552  -0.05777  -0.05583  -0.05583  -0.04904
 Alpha virt. eigenvalues --   -0.04904  -0.04875  -0.04875  -0.03447  -0.03447
 Alpha virt. eigenvalues --   -0.01280  -0.01279  -0.00176  -0.00175   0.01337

 Mulliken charges:
               1
     1  C    0.018107
     2  C    0.018103
     3  C   -0.213597
     4  C   -0.213599
     5  C   -0.213595
     6  C   -0.213604
     7  C    0.018122
     8  C    0.018092
     9  C    0.018116
    10  C    0.018091
    11  C   -0.213563
    12  C   -0.213572
    13  C   -0.213569
    14  C   -0.213563
    15  C    0.018119
    16  C    0.018111
    17  C    0.018107
    18  C    0.018103
    19  C   -0.213597
    20  C   -0.213599
    21  C   -0.213595
    22  C   -0.213604
    23  C    0.018122
    24  C    0.018091
    25  C    0.018115
    26  C    0.018091
    27  C   -0.213563
    28  C   -0.213572
    29  C   -0.213570
    30  C   -0.213563
    31  C    0.018118
    32  C    0.018113
    33  C    0.018107
    34  C    0.018104
    35  C   -0.213597
    36  C   -0.213599
    37  C   -0.213595
    38  C   -0.213604
    39  C    0.018123
    40  C    0.018091
    41  C    0.018115
    42  C    0.018090
    43  C   -0.213563
    44  C   -0.213572
    45  C   -0.213570
    46  C   -0.213562
    47  C    0.018117
    48  C    0.018113
    49  C    0.018106
    50  C    0.018104
    51  C   -0.213597
    52  C   -0.213599
    53  C   -0.213595
    54  C   -0.213604
    55  C    0.018121
    56  C    0.018093
    57  C    0.018115
    58  C    0.018091
    59  C   -0.213564
    60  C   -0.213571
    61  C   -0.213569
    62  C   -0.213563
    63  C    0.018118
    64  C    0.018113
    65  H    0.195480
    66  H    0.195481
    67  H    0.195488
    68  H    0.195480
    69  H    0.195472
    70  H    0.195466
    71  H    0.195467
    72  H    0.195469
    73  H    0.195480
    74  H    0.195480
    75  H    0.195489
    76  H    0.195479
    77  H    0.195472
    78  H    0.195466
    79  H    0.195467
    80  H    0.195469
    81  H    0.195480
    82  H    0.195481
    83  H    0.195488
    84  H    0.195479
    85  H    0.195472
    86  H    0.195466
    87  H    0.195467
    88  H    0.195469
    89  H    0.195480
    90  H    0.195481
    91  H    0.195488
    92  H    0.195479
    93  H    0.195472
    94  H    0.195466
    95  H    0.195467
    96  H    0.195469
 Sum of Mulliken charges =  -0.00000

 Dipole moment (field-independent basis, Debye):
    X=             -0.0000    Y=             -0.0000    Z=             -0.0004  Tot=              0.0004
 Quadrupole moment (field-independent basis, Debye-Ang):
   XX=           -381.3741   YY=           -381.3741   ZZ=           -310.0473
   XY=             -0.0000   XZ=              0.0000   YZ=              0.0000

 Normal termination of Gaussian 16 at Tue Jul  8 03:04:43 2025.
