 Gaussian 16, Revision B.01,
 Gaussian 16:  ES64L-G16RevB.01 20-Dec-2017

 ------------------------------------
 # B3LYP/6-311G* Pop=Hirshfeld NOSYMM
 ------------------------------------

 ----------------------------
 From ../../cnt_5_5-2_opt.out
 ----------------------------
 Symbolic Z-matrix:
 Charge =  0 Multiplicity = 1

                          Input orientation:
 ---------------------------------------------------------------------
 Center     Atomic      Atomic             Coordinates (Angstroms)
 Number     Number       Type             X           Y           Z
 ---------------------------------------------------------------------
      1          6           0        2.801128    2.041478    1.234011
      2          6           0        3.392061    0.715177    1.234087
      3          6           0        2.866658    2.023774    3.666001
      4          6           0        3.422445    0.775802    3.666064
      5          6           0        1.129182    3.321178    0.023141
      6          6           0        2.312513    2.638444    0.023100
      7          6           0        1.065808    3.297118    2.455114
      8          6           0        2.323578    2.571607    2.455056
      9          6           0       -1.076180    3.293467    1.234087
     10          6           0        0.367838    3.445299    1.234078
     11          6           0       -1.038924    3.349895    3.666111
     12          6           0        0.319730    3.492735    3.666089
     13          6           0       -2.810792    2.100141    0.023157
     14          6           0       -1.795117    3.013801    0.023165
     15          6           0       -2.807656    2.032459    2.455123
     16          6           0       -1.728060    3.003435    2.455151
     17          6           0       -3.466648   -0.005612    1.234111
     18          6           0       -3.164637    1.414656    1.234086
     19          6           0       -3.509238    0.047395    3.666056
     20          6           0       -3.225054    1.383660    3.666021
     21          6           0       -2.866657   -2.023774    0.023267
     22          6           0       -3.422445   -0.775802    0.023204
     23          6           0       -2.801128   -2.041478    2.455257
     24          6           0       -3.392061   -0.715177    2.455181
     25          6           0       -1.065808   -3.297118    1.234154
     26          6           0       -2.323578   -2.571607    1.234212
     27          6           0       -1.129182   -3.321178    3.666127
     28          6           0       -2.312513   -2.638444    3.666168
     29          6           0        1.038925   -3.349895    0.023157
     30          6           0       -0.319729   -3.492735    0.023179
     31          6           0        1.076180   -3.293467    2.455181
     32          6           0       -0.367838   -3.445298    2.455190
     33          6           0        2.807656   -2.032459    1.234145
     34          6           0        1.728060   -3.003435    1.234117
     35          6           0        2.810792   -2.100141    3.666111
     36          6           0        1.795117   -3.013800    3.666103
     37          6           0        3.509239   -0.047395    0.023212
     38          6           0        3.225054   -1.383660    0.023247
     39          6           0        3.466649    0.005612    2.455157
     40          6           0        3.164637   -1.414656    2.455182
     41          1           0        2.715255    2.536955    4.610302
     42          1           0        3.702538    0.320030    4.610422
     43          1           0        0.705006    3.647196   -0.921194
     44          1           0        2.806998    2.434397   -0.921273
     45          1           0       -1.573650    3.364269    4.610484
     46          1           0        0.839803    3.617926    4.610457
     47          1           0       -3.252160    1.797823   -0.921191
     48          1           0       -1.448017    3.420874   -0.921184
     49          1           0       -3.688626   -0.456627    4.610395
     50          1           0       -3.183715    1.917072    4.610347
     51          1           0       -2.715255   -2.536955   -0.921034
     52          1           0       -3.702538   -0.320030   -0.921154
     53          1           0       -0.705006   -3.647196    4.610462
     54          1           0       -2.806998   -2.434397    4.610541
     55          1           0        1.573650   -3.364269   -0.921216
     56          1           0       -0.839803   -3.617926   -0.921189
     57          1           0        3.252160   -1.797823    4.610459
     58          1           0        1.448017   -3.420874    4.610452
     59          1           0        3.688626    0.456627   -0.921127
     60          1           0        3.183716   -1.917072   -0.921079
 ---------------------------------------------------------------------

 SCF Done:  E(RB3LYP) =  -1536.51695598     A.U. after   13 cycles

 Alpha  occ. eigenvalues --  -10.19367 -10.19366 -10.19366 -10.19362 -10.19362
 Alpha  occ. eigenvalues --  -10.19354 -10.19354 -10.19344 -10.19344 -10.19337
 Alpha  occ. eigenvalues --  -10.19323 -10.19315 -10.19315 -10.19303 -10.19303
 Alpha  occ. eigenvalues --  -10.19294 -10.19294 -10.19289 -10.19289 -10.19287
 Alpha  occ. eigenvalues --  -10.18237 -10.18237 -10.18237 -10.18237 -10.18236
 Alpha  occ. eigenvalues --  -10.18236 -10.18236 -10.18236 -10.18235 -10.18235
 Alpha  occ. eigenvalues --  -10.18172 -10.18172 -10.18172 -10.18172 -10.18172
 Alpha  occ. eigenvalues --  -10.18172 -10.18171 -10.18171 -10.18171 -10.18171
 Alpha  occ. eigenvalues --   -0.90608  -0.89639  -0.89639  -0.86815  -0.86815
 Alpha  occ. eigenvalues --   -0.82531  -0.82531  -0.82163  -0.81451  -0.81450
 Alpha  occ. eigenvalues --   -0.78196  -0.78195  -0.75768  -0.75767  -0.75010
 Alpha  occ. eigenvalues --   -0.75010  -0.72247  -0.72246  -0.71639  -0.70680
 Alpha  occ. eigenvalues --   -0.65958  -0.64171  -0.64171  -0.63816  -0.63815
 Alpha  occ. eigenvalues --   -0.62529  -0.60777  -0.60777  -0.60503  -0.60502
 Alpha  occ. eigenvalues --   -0.55954  -0.55954  -0.54155  -0.53134  -0.53134
 Alpha  occ. eigenvalues --   -0.52909  -0.52047  -0.51162  -0.51161  -0.49473
 Alpha  occ. eigenvalues --   -0.49471  -0.48430  -0.48429  -0.47127  -0.47126
 Alpha  occ. eigenvalues --   -0.45221  -0.45100  -0.45100  -0.43869  -0.43869
 Alpha  occ. eigenvalues --   -0.43325  -0.43297  -0.43207  -0.43205  -0.42433
 Alpha  occ. eigenvalues --   -0.42432  -0.41824  -0.41824  -0.41066  -0.41066
 Alpha  occ. eigenvalues --   -0.40770  -0.40770  -0.40406  -0.39750  -0.39750
 Alpha  occ. eigenvalues --   -0.36871  -0.36871  -0.35839  -0.35838  -0.34089
 Alpha  occ. eigenvalues --   -0.34088  -0.33179  -0.33179  -0.33041  -0.32963
 Alpha  occ. eigenvalues --   -0.31902  -0.31902  -0.31518  -0.31497  -0.31496
 Alpha  occ. eigenvalues --   -0.28463  -0.28462  -0.24934  -0.24934  -0.24106
 Alpha  occ. eigenvalues --   -0.24104  -0.22062  -0.22061  -0.21165  -0.18873
 Alpha virt. eigenvalues --   -0.07851  -0.04799  -0.04797  -0.04724  -0.03492
 Alpha virt. eigenvalues --   -0.03491  -0.02647  -0.02645  -0.00160  -0.00159
 Alpha virt. eigenvalues --    0.03708   0.04408   0.04442   0.04443   0.04596

 Mulliken charges:
               1
     1  C    0.027707
     2  C    0.027778
     3  C   -0.223207
     4  C   -0.223141
     5  C   -0.223143
     6  C   -0.223155
     7  C    0.027712
     8  C    0.027729
     9  C    0.027692
    10  C    0.027689
    11  C   -0.223127
    12  C   -0.223124
    13  C   -0.223241
    14  C   -0.223104
    15  C    0.027666
    16  C    0.027750
    17  C    0.027658
    18  C    0.027796
    19  C   -0.223205
    20  C   -0.223194
    21  C   -0.223208
    22  C   -0.223140
    23  C    0.027706
    24  C    0.027780
    25  C    0.027713
    26  C    0.027729
    27  C   -0.223143
    28  C   -0.223155
    29  C   -0.223126
    30  C   -0.223124
    31  C    0.027694
    32  C    0.027687
    33  C    0.027667
    34  C    0.027749
    35  C   -0.223240
    36  C   -0.223105
    37  C   -0.223204
    38  C   -0.223195
    39  C    0.027660
    40  C    0.027794
    41  H    0.195462
    42  H    0.195449
    43  H    0.195444
    44  H    0.195436
    45  H    0.195430
    46  H    0.195427
    47  H    0.195446
    48  H    0.195448
    49  H    0.195460
    50  H    0.195462
    51  H    0.195462
    52  H    0.195449
    53  H    0.195444
    54  H    0.195436
    55  H    0.195430
    56  H    0.195427
    57  H    0.195446
    58  H    0.195448
    59  H    0.195460
    60  H    0.195462
 Sum of Mulliken charges =  -0.00000

 Dipole moment (field-independent basis, Debye):
    X=             -0.0000    Y=             -0.0000    Z=             -0.0000  Tot=              0.0000
 Quadrupole moment (field-independent basis, Debye-Ang):
   XX=           -239.2650   YY=           -239.2739   ZZ=           -193.4182
   XY=              0.0002   XZ=             -0.0005   YZ=             -0.0018

 Normal termination of Gaussian 16 at Tue Jul  8 03:00:07 2025.
