 Gaussian 16, Revision B.01,
 Gaussian 16:  ES64L-G16RevB.01 20-Dec-2017

 ------------------------------------
 # B3LYP/6-311G* Pop=Hirshfeld NOSYMM
 ------------------------------------

 ----------------------------
 From ../../cnt_7_7-2_opt.out
 ----------------------------
 Symbolic Z-matrix:
 Charge =  0 Multiplicity = 1

                          Input orientation:
 ---------------------------------------------------------------------
 Center     Atomic      Atomic             Coordinates (Angstroms)
 Number     Number       Type             X           Y           Z
 ---------------------------------------------------------------------
      1          6           0        4.348112    2.099528    1.232160
      2          6           0        4.775051    0.714981    1.232141
      3          6           0        4.412206    2.076318    3.666296
      4          6           0        4.814950    0.770227    3.666280
      5          6           0        3.074693    3.785402    0.022975
      6          6           0        4.004167    2.783333    0.022962
      7          6           0        3.006943    3.778513    2.457111
      8          6           0        3.992218    2.716226    2.457099
      9          6           0        1.069891    4.708894    1.232200
     10          6           0        2.418657    4.179686    1.232189
     11          6           0        1.127965    4.744480    3.666334
     12          6           0        2.400308    4.245277    3.666323
     13          6           0       -1.042139    4.763770    0.022968
     14          6           0        0.320794    4.866147    0.022992
     15          6           0       -1.079013    4.706440    2.457108
     16          6           0        0.365785    4.814888    2.457126
     17          6           0       -3.014114    3.772050    1.232171
     18          6           0       -1.759374    4.496524    1.232169
     19          6           0       -3.005868    3.839841    3.666295
     20          6           0       -1.822202    4.523241    3.666290
     21          6           0       -4.373970    2.155107    0.022989
     22          6           0       -3.604133    3.284445    0.022970
     23          6           0       -4.352169    2.090586    2.457124
     24          6           0       -3.536111    3.287778    2.457108
     25          6           0       -4.828167   -0.004936    1.232196
     26          6           0       -4.612247    1.427744    1.232197
     27          6           0       -4.875879    0.043763    3.666331
     28          6           0       -4.672188    1.395276    3.666330
     29          6           0       -4.412204   -2.076318    0.022972
     30          6           0       -4.814949   -0.770227    0.022988
     31          6           0       -4.348111   -2.099528    2.457108
     32          6           0       -4.775050   -0.714981    2.457127
     33          6           0       -3.006942   -3.778513    1.232157
     34          6           0       -3.992217   -2.716226    1.232169
     35          6           0       -3.074692   -3.785402    3.666293
     36          6           0       -4.004166   -2.783333    3.666306
     37          6           0       -1.127964   -4.744480    0.022934
     38          6           0       -2.400306   -4.245277    0.022946
     39          6           0       -1.069890   -4.708894    2.457068
     40          6           0       -2.418655   -4.179686    2.457079
     41          6           0        1.079014   -4.706440    1.232160
     42          6           0       -0.365784   -4.814888    1.232142
     43          6           0        1.042140   -4.763770    3.666300
     44          6           0       -0.320792   -4.866147    3.666276
     45          6           0        3.005870   -3.839840    0.022973
     46          6           0        1.822203   -4.523240    0.022978
     47          6           0        3.014115   -3.772049    2.457097
     48          6           0        1.759376   -4.496524    2.457099
     49          6           0        4.352170   -2.090586    1.232144
     50          6           0        3.536112   -3.287778    1.232160
     51          6           0        4.373971   -2.155107    3.666279
     52          6           0        3.604135   -3.284444    3.666298
     53          6           0        4.875880   -0.043762    0.022937
     54          6           0        4.672189   -1.395275    0.022938
     55          6           0        4.828168    0.004937    2.457072
     56          6           0        4.612248   -1.427744    2.457071
     57          1           0        4.317120    2.594383    4.614532
     58          1           0        5.028080    0.288532    4.614507
     59          1           0        2.764253    4.210943   -0.925247
     60          1           0        4.405178    2.441844   -0.925275
     61          1           0        0.663555    4.993012    4.614572
     62          1           0        2.909825    4.111719    4.614551
     63          1           0       -1.568380    4.786242   -0.925262
     64          1           0        0.837803    4.966917   -0.925236
     65          1           0       -3.489818    3.631854    4.614514
     66          1           0       -1.400163    4.838411    4.614514
     67          1           0       -4.719650    1.757664   -0.925232
     68          1           0       -3.360536    3.751432   -0.925274
     69          1           0       -5.014955   -0.464263    4.614563
     70          1           0       -4.655289    1.921727    4.614564
     71          1           0       -4.317119   -2.594382   -0.925264
     72          1           0       -5.028079   -0.288532   -0.925239
     73          1           0       -2.764251   -4.210942    4.614515
     74          1           0       -4.405177   -2.441844    4.614543
     75          1           0       -0.663554   -4.993011   -0.925304
     76          1           0       -2.909824   -4.111719   -0.925283
     77          1           0        1.568382   -4.786242    4.614530
     78          1           0       -0.837802   -4.966916    4.614504
     79          1           0        3.489819   -3.631854   -0.925246
     80          1           0        1.400164   -4.838411   -0.925246
     81          1           0        4.719651   -1.757663    4.614500
     82          1           0        3.360537   -3.751432    4.614542
     83          1           0        5.014956    0.464263   -0.925295
     84          1           0        4.655290   -1.921727   -0.925296
 ---------------------------------------------------------------------

 SCF Done:  E(RB3LYP) =  -2151.26953374     A.U. after   15 cycles

 Alpha  occ. eigenvalues --  -10.19319 -10.19319 -10.19318 -10.19316 -10.19316
 Alpha  occ. eigenvalues --  -10.19313 -10.19313 -10.19307 -10.19307 -10.19300
 Alpha  occ. eigenvalues --  -10.19300 -10.19292 -10.19292 -10.19287 -10.19276
 Alpha  occ. eigenvalues --  -10.19270 -10.19270 -10.19262 -10.19262 -10.19254
 Alpha  occ. eigenvalues --  -10.19254 -10.19248 -10.19247 -10.19243 -10.19243
 Alpha  occ. eigenvalues --  -10.19240 -10.19240 -10.19239 -10.18167 -10.18167
 Alpha  occ. eigenvalues --  -10.18167 -10.18167 -10.18166 -10.18166 -10.18166
 Alpha  occ. eigenvalues --  -10.18166 -10.18166 -10.18166 -10.18166 -10.18165
 Alpha  occ. eigenvalues --  -10.18165 -10.18165 -10.18102 -10.18102 -10.18102
 Alpha  occ. eigenvalues --  -10.18102 -10.18102 -10.18102 -10.18102 -10.18102
 Alpha  occ. eigenvalues --  -10.18102 -10.18102 -10.18101 -10.18101 -10.18101
 Alpha  occ. eigenvalues --  -10.18101  -0.90423  -0.89952  -0.89952  -0.88552
 Alpha  occ. eigenvalues --   -0.88552  -0.86269  -0.86269  -0.83249  -0.83249
 Alpha  occ. eigenvalues --   -0.82115  -0.81748  -0.81748  -0.81042  -0.81041
 Alpha  occ. eigenvalues --   -0.78177  -0.78177  -0.77943  -0.77943  -0.75622
 Alpha  occ. eigenvalues --   -0.75622  -0.74192  -0.74192  -0.73249  -0.73249
 Alpha  occ. eigenvalues --   -0.71906  -0.71906  -0.71626  -0.70754  -0.66302
 Alpha  occ. eigenvalues --   -0.64656  -0.64656  -0.63790  -0.63790  -0.63639
 Alpha  occ. eigenvalues --   -0.63639  -0.62627  -0.62569  -0.62569  -0.61405
 Alpha  occ. eigenvalues --   -0.61405  -0.59168  -0.59168  -0.56080  -0.56080
 Alpha  occ. eigenvalues --   -0.55199  -0.55199  -0.54297  -0.53311  -0.52396
 Alpha  occ. eigenvalues --   -0.52396  -0.51941  -0.51791  -0.51791  -0.51196
 Alpha  occ. eigenvalues --   -0.51195  -0.49970  -0.49970  -0.49013  -0.49013
 Alpha  occ. eigenvalues --   -0.47325  -0.47325  -0.46219  -0.46219  -0.45843
 Alpha  occ. eigenvalues --   -0.45843  -0.45163  -0.45038  -0.45038  -0.43360
 Alpha  occ. eigenvalues --   -0.43192  -0.43192  -0.42961  -0.42715  -0.42715
 Alpha  occ. eigenvalues --   -0.42363  -0.42363  -0.42331  -0.42330  -0.42143
 Alpha  occ. eigenvalues --   -0.42143  -0.41021  -0.41021  -0.40929  -0.40929
 Alpha  occ. eigenvalues --   -0.40865  -0.40865  -0.40345  -0.40345  -0.40275
 Alpha  occ. eigenvalues --   -0.39779  -0.39778  -0.37512  -0.37512  -0.36293
 Alpha  occ. eigenvalues --   -0.36293  -0.35765  -0.35764  -0.34692  -0.34691
 Alpha  occ. eigenvalues --   -0.33822  -0.33822  -0.33299  -0.33087  -0.32968
 Alpha  occ. eigenvalues --   -0.32968  -0.32575  -0.32575  -0.32402  -0.32402
 Alpha  occ. eigenvalues --   -0.31494  -0.31224  -0.31224  -0.28495  -0.28495
 Alpha  occ. eigenvalues --   -0.27830  -0.27829  -0.25889  -0.25889  -0.23270
 Alpha  occ. eigenvalues --   -0.23269  -0.22835  -0.22835  -0.21390  -0.21390
 Alpha  occ. eigenvalues --   -0.20728  -0.19712
 Alpha virt. eigenvalues --   -0.07615  -0.05546  -0.05363  -0.05363  -0.04533
 Alpha virt. eigenvalues --   -0.04533  -0.04344  -0.04344  -0.02700  -0.02699
 Alpha virt. eigenvalues --    0.00039   0.00039   0.00855   0.00856   0.03673

 Mulliken charges:
               1
     1  C    0.021360
     2  C    0.021457
     3  C   -0.216636
     4  C   -0.216633
     5  C   -0.216677
     6  C   -0.216613
     7  C    0.021433
     8  C    0.021441
     9  C    0.021388
    10  C    0.021434
    11  C   -0.216617
    12  C   -0.216678
    13  C   -0.216642
    14  C   -0.216639
    15  C    0.021411
    16  C    0.021428
    17  C    0.021366
    18  C    0.021452
    19  C   -0.216644
    20  C   -0.216645
    21  C   -0.216656
    22  C   -0.216627
    23  C    0.021348
    24  C    0.021458
    25  C    0.021385
    26  C    0.021489
    27  C   -0.216657
    28  C   -0.216621
    29  C   -0.216636
    30  C   -0.216633
    31  C    0.021360
    32  C    0.021457
    33  C    0.021434
    34  C    0.021442
    35  C   -0.216676
    36  C   -0.216613
    37  C   -0.216616
    38  C   -0.216679
    39  C    0.021389
    40  C    0.021432
    41  C    0.021411
    42  C    0.021427
    43  C   -0.216642
    44  C   -0.216639
    45  C   -0.216643
    46  C   -0.216646
    47  C    0.021365
    48  C    0.021452
    49  C    0.021348
    50  C    0.021459
    51  C   -0.216656
    52  C   -0.216626
    53  C   -0.216657
    54  C   -0.216621
    55  C    0.021386
    56  C    0.021488
    57  H    0.195226
    58  H    0.195217
    59  H    0.195230
    60  H    0.195222
    61  H    0.195218
    62  H    0.195224
    63  H    0.195235
    64  H    0.195213
    65  H    0.195230
    66  H    0.195231
    67  H    0.195229
    68  H    0.195217
    69  H    0.195231
    70  H    0.195215
    71  H    0.195226
    72  H    0.195216
    73  H    0.195230
    74  H    0.195222
    75  H    0.195218
    76  H    0.195223
    77  H    0.195235
    78  H    0.195212
    79  H    0.195230
    80  H    0.195231
    81  H    0.195228
    82  H    0.195216
    83  H    0.195231
    84  H    0.195214
 Sum of Mulliken charges =  -0.00000

 Dipole moment (field-independent basis, Debye):
    X=             -0.0000    Y=              0.0000    Z=             -0.0000  Tot=              0.0000
 Quadrupole moment (field-independent basis, Debye-Ang):
   XX=           -334.0343   YY=           -334.0313   ZZ=           -271.2506
   XY=             -0.0011   XZ=             -0.0012   YZ=              0.0004

 Normal termination of Gaussian 16 at Tue Jul  8 03:01:22 2025.
