 Gaussian 16, Revision B.01,
 Gaussian 16:  ES64L-G16RevB.01 20-Dec-2017

 ------------------------------------
 # B3LYP/6-311G* Pop=Hirshfeld NOSYMM
 ------------------------------------

 ----------------------------
 From ../../5helicene_opt.out
 ----------------------------
 Symbolic Z-matrix:
 Charge =  0 Multiplicity = 1

                          Input orientation:
 ---------------------------------------------------------------------
 Center     Atomic      Atomic             Coordinates (Angstroms)
 Number     Number       Type             X           Y           Z
 ---------------------------------------------------------------------
      1          6           0       -2.371672   -0.207152    2.856024
      2          6           0       -1.198825   -0.047528    3.535966
      3          6           0       -2.417799   -0.019587    1.445542
      4          6           0        0.027968    0.105142    2.829985
      5          6           0       -1.232147    0.297893    0.724716
      6          6           0        0.038323    0.132372    1.406852
      7          6           0       -3.673671   -0.115091    0.765443
      8          6           0       -3.787038    0.185889   -0.556981
      9          6           0       -2.675770    0.741371   -1.264115
     10          6           0       -1.405830    0.855453   -0.614124
     11          1           0       -3.298599   -0.416743    3.383953
     12          1           0       -1.172033   -0.097359    4.621614
     13          1           0       -4.540420   -0.439163    1.336413
     14          1           0       -4.739491    0.087979   -1.071992
     15          6           0       -2.849381    1.262696   -2.570133
     16          6           0       -0.415029    1.634422   -1.267226
     17          6           0       -0.622052    2.169606   -2.523415
     18          6           0       -1.838874    1.955866   -3.201429
     19          1           0       -3.815748    1.135799   -3.052693
     20          1           0        0.520856    1.832359   -0.760755
     21          1           0        0.157933    2.769116   -2.984989
     22          1           0       -1.989746    2.363842   -4.197145
     23          6           0        2.458411    0.205335    2.930231
     24          6           0        1.253935    0.191908    3.563710
     25          6           0        2.529017   -0.009416    1.518704
     26          6           0        1.323139   -0.104990    0.753858
     27          6           0        3.781547   -0.219673    0.890562
     28          6           0        3.861173   -0.598466   -0.432440
     29          6           0        2.673673   -0.803778   -1.163017
     30          6           0        1.443005   -0.563761   -0.584110
     31          1           0        3.384118    0.295474    3.493194
     32          1           0        1.197291    0.249789    4.648017
     33          1           0        4.683746   -0.111267    1.488154
     34          1           0        4.827420   -0.771291   -0.898441
     35          1           0        0.546674   -0.750350   -1.161461
     36          1           0        2.722339   -1.164304   -2.186976
 ---------------------------------------------------------------------

 SCF Done:  E(RB3LYP) =  -846.971989639     A.U. after   14 cycles

 Alpha  occ. eigenvalues --  -10.19596 -10.19560 -10.19070 -10.19069 -10.18884
 Alpha  occ. eigenvalues --  -10.18883 -10.18676 -10.18676 -10.17878 -10.17837
 Alpha  occ. eigenvalues --  -10.17837 -10.17812 -10.17765 -10.17765 -10.17650
 Alpha  occ. eigenvalues --  -10.17650 -10.17586 -10.17586 -10.17468 -10.17468
 Alpha  occ. eigenvalues --  -10.17333 -10.17332  -0.89449  -0.87343  -0.85218
 Alpha  occ. eigenvalues --   -0.82515  -0.80095  -0.78903  -0.76450  -0.75087
 Alpha  occ. eigenvalues --   -0.73928  -0.72243  -0.71423  -0.64463  -0.64128
 Alpha  occ. eigenvalues --   -0.61686  -0.61337  -0.61337  -0.58029  -0.55723
 Alpha  occ. eigenvalues --   -0.53368  -0.53064  -0.50447  -0.50180  -0.49670
 Alpha  occ. eigenvalues --   -0.47065  -0.46663  -0.45678  -0.43625  -0.43586
 Alpha  occ. eigenvalues --   -0.43562  -0.42858  -0.42378  -0.41866  -0.40537
 Alpha  occ. eigenvalues --   -0.40393  -0.39268  -0.39201  -0.37402  -0.36965
 Alpha  occ. eigenvalues --   -0.36403  -0.35350  -0.34872  -0.33500  -0.33168
 Alpha  occ. eigenvalues --   -0.32671  -0.30200  -0.29203  -0.28035  -0.25662
 Alpha  occ. eigenvalues --   -0.23405  -0.21577  -0.21061
 Alpha virt. eigenvalues --   -0.05843  -0.05771  -0.03098  -0.00981   0.01307
 Alpha virt. eigenvalues --    0.02804   0.04035   0.04826   0.05129   0.05333
 Alpha virt. eigenvalues --    0.06407   0.07115   0.08295   0.08847   0.08900

 Mulliken charges:
               1
     1  C   -0.219056
     2  C   -0.219038
     3  C    0.055677
     4  C    0.055651
     5  C    0.024934
     6  C    0.024927
     7  C   -0.222906
     8  C   -0.210867
     9  C    0.063940
    10  C   -0.062189
    11  H    0.192707
    12  H    0.192705
    13  H    0.192860
    14  H    0.191151
    15  C   -0.217663
    16  C   -0.210438
    17  C   -0.196408
    18  C   -0.190348
    19  H    0.190945
    20  H    0.233462
    21  H    0.192612
    22  H    0.191577
    23  C   -0.210838
    24  C   -0.222918
    25  C    0.063869
    26  C   -0.062072
    27  C   -0.217663
    28  C   -0.190343
    29  C   -0.196405
    30  C   -0.210483
    31  H    0.191150
    32  H    0.192858
    33  H    0.190945
    34  H    0.191575
    35  H    0.233474
    36  H    0.192612
 Sum of Mulliken charges =  -0.00000

 Dipole moment (field-independent basis, Debye):
    X=             -0.0228    Y=             -0.0065    Z=              0.0407  Tot=              0.0471
 Quadrupole moment (field-independent basis, Debye-Ang):
   XX=           -111.2041   YY=           -133.0171   ZZ=           -111.9352
   XY=              2.0456   XZ=              0.7810   YZ=             -2.2155

 Normal termination of Gaussian 16 at Sun Jul  6 01:53:15 2025.
