 Gaussian 16, Revision B.01,
 Gaussian 16:  ES64L-G16RevB.01 20-Dec-2017

 ------------------------------------
 # B3LYP/6-311G* Pop=Hirshfeld NOSYMM
 ------------------------------------

 ----------------------------
 From ../../6helicene_opt.out
 ----------------------------
 Symbolic Z-matrix:
 Charge =  0 Multiplicity = 1

                          Input orientation:
 ---------------------------------------------------------------------
 Center     Atomic      Atomic             Coordinates (Angstroms)
 Number     Number       Type             X           Y           Z
 ---------------------------------------------------------------------
      1          6           0        2.292601    2.896772    0.780853
      2          6           0        1.161623    3.563987    0.410536
      3          6           0        0.000220    2.848267   -0.000016
      4          6           0        0.000106    1.419074   -0.000019
      5          6           0        1.297935    0.761672    0.039104
      6          6           0        2.400640    1.493321    0.559982
      7          6           0        1.583059   -0.550049   -0.532982
      8          6           0        2.847206   -1.169299   -0.274951
      9          6           0        3.848040   -0.460953    0.460526
     10          6           0        3.649144    0.838967    0.810713
     11          6           0        0.706841   -1.216336   -1.426560
     12          6           0        1.018725   -2.449059   -1.966028
     13          6           0        2.228045   -3.090776   -1.635297
     14          6           0        3.127974   -2.449963   -0.810328
     15          6           0       -1.161069    3.564175   -0.410560
     16          6           0       -2.292161    2.897142   -0.780863
     17          6           0       -2.400425    1.493710   -0.559986
     18          6           0       -1.297829    0.761883   -0.039127
     19          6           0       -3.649042    0.839558   -0.810688
     20          6           0       -3.848143   -0.460328   -0.460489
     21          6           0       -2.847407   -1.168834    0.274968
     22          6           0       -1.583154   -0.549789    0.532967
     23          6           0       -3.128369   -2.449451    0.810356
     24          6           0       -2.228519   -3.090410    1.635299
     25          6           0       -1.019084   -2.448891    1.965992
     26          6           0       -0.707015   -1.216219    1.426514
     27          1           0        3.156802    3.432239    1.165720
     28          1           0        1.111592    4.648913    0.458404
     29          1           0        4.793454   -0.956124    0.668169
     30          1           0        4.441186    1.413392    1.285017
     31          1           0       -0.220043   -0.738232   -1.715109
     32          1           0        0.325164   -2.921739   -2.656123
     33          1           0        2.460547   -4.067908   -2.049863
     34          1           0        4.087879   -2.906969   -0.580798
     35          1           0       -1.110865    4.649093   -0.458425
     36          1           0       -3.156281    3.432750   -1.165717
     37          1           0       -4.441000    1.414110   -1.284977
     38          1           0       -4.793642   -0.955346   -0.668109
     39          1           0       -4.088354   -2.906302    0.580853
     40          1           0       -2.461168   -4.067504    2.049872
     41          1           0       -0.325577   -2.921687    2.656063
     42          1           0        0.219960   -0.738268    1.715029
 ---------------------------------------------------------------------

 SCF Done:  E(RB3LYP) =  -1000.63726868     A.U. after   14 cycles

 Alpha  occ. eigenvalues --  -10.19694 -10.19495 -10.19492 -10.18923 -10.18855
 Alpha  occ. eigenvalues --  -10.18855 -10.18806 -10.18805 -10.18475 -10.18475
 Alpha  occ. eigenvalues --  -10.17879 -10.17877 -10.17805 -10.17805 -10.17764
 Alpha  occ. eigenvalues --  -10.17764 -10.17694 -10.17694 -10.17436 -10.17435
 Alpha  occ. eigenvalues --  -10.17358 -10.17358 -10.17195 -10.17195 -10.17043
 Alpha  occ. eigenvalues --  -10.17042  -0.89641  -0.87759  -0.86058  -0.83942
 Alpha  occ. eigenvalues --   -0.81719  -0.79464  -0.79336  -0.76414  -0.75912
 Alpha  occ. eigenvalues --   -0.73736  -0.73674  -0.71546  -0.71400  -0.64773
 Alpha  occ. eigenvalues --   -0.64249  -0.62197  -0.61645  -0.61644  -0.60172
 Alpha  occ. eigenvalues --   -0.57788  -0.56069  -0.53996  -0.52964  -0.51438
 Alpha  occ. eigenvalues --   -0.51322  -0.49740  -0.48834  -0.48075  -0.46621
 Alpha  occ. eigenvalues --   -0.45454  -0.45231  -0.43763  -0.43464  -0.43248
 Alpha  occ. eigenvalues --   -0.42728  -0.42437  -0.42186  -0.40942  -0.40599
 Alpha  occ. eigenvalues --   -0.40057  -0.39782  -0.38957  -0.37492  -0.37264
 Alpha  occ. eigenvalues --   -0.36829  -0.36013  -0.35376  -0.34797  -0.34257
 Alpha  occ. eigenvalues --   -0.32882  -0.32725  -0.31929  -0.30058  -0.29160
 Alpha  occ. eigenvalues --   -0.28068  -0.26379  -0.23453  -0.23055  -0.21072
 Alpha  occ. eigenvalues --   -0.20853
 Alpha virt. eigenvalues --   -0.06460  -0.05766  -0.03241  -0.02917   0.00501
 Alpha virt. eigenvalues --    0.01397   0.03231   0.03677   0.04669   0.05064
 Alpha virt. eigenvalues --    0.05342   0.06007   0.06801   0.07459   0.07662

 Mulliken charges:
               1
     1  C   -0.223239
     2  C   -0.214238
     3  C    0.045967
     4  C    0.057175
     5  C   -0.081516
     6  C    0.085738
     7  C   -0.025507
     8  C    0.060734
     9  C   -0.209950
    10  C   -0.224376
    11  C   -0.194477
    12  C   -0.187408
    13  C   -0.192704
    14  C   -0.214885
    15  C   -0.214237
    16  C   -0.223241
    17  C    0.085737
    18  C   -0.081508
    19  C   -0.224375
    20  C   -0.209951
    21  C    0.060735
    22  C   -0.025503
    23  C   -0.214887
    24  C   -0.192703
    25  C   -0.187410
    26  C   -0.194478
    27  H    0.191985
    28  H    0.193254
    29  H    0.190915
    30  H    0.191850
    31  H    0.230625
    32  H    0.191540
    33  H    0.190383
    34  H    0.189701
    35  H    0.193254
    36  H    0.191984
    37  H    0.191850
    38  H    0.190915
    39  H    0.189701
    40  H    0.190383
    41  H    0.191540
    42  H    0.230629
 Sum of Mulliken charges =  -0.00000

 Dipole moment (field-independent basis, Debye):
    X=              0.0000    Y=             -0.0346    Z=              0.0000  Tot=              0.0346
 Quadrupole moment (field-independent basis, Debye-Ang):
   XX=           -134.1840   YY=           -132.8072   ZZ=           -152.7301
   XY=             -0.0000   XZ=              8.3413   YZ=             -0.0006

 Normal termination of Gaussian 16 at Tue Jun 10 19:31:28 2025.
