 Gaussian 16, Revision B.01,
 Gaussian 16:  ES64L-G16RevB.01 20-Dec-2017

 ------------------------------------
 # B3LYP/6-311G* Pop=Hirshfeld NOSYMM
 ------------------------------------

 -----------------------------
 From ../../6x1_m1_CNB_opt.out
 -----------------------------
 Symbolic Z-matrix:
 Charge =  0 Multiplicity = 1

                          Input orientation:
 ---------------------------------------------------------------------
 Center     Atomic      Atomic             Coordinates (Angstroms)
 Number     Number       Type             X           Y           Z
 ---------------------------------------------------------------------
      1          6           0        3.534627   -1.148165   -1.762300
      2          6           0        3.480533   -1.130586   -0.348358
      3          6           0        3.676424    1.256882   -1.854868
      4          6           0        3.837652    0.049174   -2.472659
      5          6           0        3.394548    1.335933   -0.454229
      6          6           0        3.644802    0.160240    0.319666
      7          6           0        3.870608    0.347306    1.720156
      8          6           0        3.526036    1.516005    2.337994
      9          6           0        2.719315    2.448183    0.213837
     10          6           0        2.761598    2.486159    1.627785
     11          6           0        1.876133    3.347146    2.338165
     12          6           0        0.749631    3.811436    1.720394
     13          6           0        1.683418    3.235643   -0.454162
     14          6           0        0.540127    3.606769    0.319761
     15          6           0        0.449862    3.810504   -2.472502
     16          6           0        1.634265    3.524539   -1.854690
     17          6           0       -0.772517    3.633762   -1.762242
     18          6           0       -0.760746    3.578260   -0.348275
     19          6           0       -2.926576    2.554657   -1.854875
     20          6           0       -1.960943    3.297705   -2.472643
     21          6           0       -2.854290    2.271113   -0.454229
     22          6           0       -1.960862    3.075241    0.319703
     23          6           0       -2.235619    3.177166    1.720233
     24          6           0       -3.075963    2.294860    2.338019
     25          6           0       -3.480559    1.130544    0.213784
     26          6           0       -3.534636    1.148111    1.627725
     27          6           0       -3.837806   -0.049215    2.338071
     28          6           0       -3.676610   -1.256917    1.720276
     29          6           0       -3.644925   -0.160272   -0.454248
     30          6           0       -3.394656   -1.335957    0.319640
     31          6           0       -3.526207   -1.516063   -2.472567
     32          6           0       -3.870828   -0.347383   -1.854728
     33          6           0       -2.761621   -2.486127   -1.762374
     34          6           0       -2.719334   -2.448146   -0.348425
     35          6           0       -0.749548   -3.811262   -1.854978
     36          6           0       -1.876063   -3.346993   -2.472758
     37          6           0       -0.540092   -3.606671   -0.454340
     38          6           0       -1.683387   -3.235521    0.319580
     39          6           0       -1.634232   -3.524285    1.720123
     40          6           0       -0.449841   -3.810294    2.337946
     41          6           0        0.760783   -3.578264    0.213705
     42          6           0        0.772546   -3.633742    1.627672
     43          6           0        1.961031   -3.297822    2.338066
     44          6           0        2.926680   -2.554807    1.720299
     45          6           0        1.960946   -3.075338   -0.454271
     46          6           0        2.854355   -2.271199    0.319655
     47          6           0        3.076112   -2.295002   -2.472574
     48          6           0        2.235802   -3.177335   -1.854789
     49          1           0        3.785334    2.160235   -2.437002
     50          1           0        4.038674   -0.001527   -3.539783
     51          1           0        4.338229   -0.433283    2.302222
     52          1           0        3.689209    1.644189    3.405084
     53          1           0        2.020600    3.495913    3.405278
     54          1           0        0.021973    4.357692    2.302533
     55          1           0        0.420400    4.015825   -3.539606
     56          1           0        2.544060    3.539296   -2.436792
     57          1           0       -3.763396    2.197543   -2.437083
     58          1           0       -2.017360    3.497042   -3.539797
     59          1           0       -1.792955    3.972066    2.302420
     60          1           0       -3.268369    2.372044    3.405146
     61          1           0       -4.038920    0.001500    3.405177
     62          1           0       -3.785699   -2.160301    2.302344
     63          1           0       -3.689471   -1.644312   -3.539634
     64          1           0       -4.338656    0.433137   -2.436729
     65          1           0       -0.021817   -4.357344   -2.437174
     66          1           0       -2.020458   -3.495684   -3.539892
     67          1           0       -2.543987   -3.538807    2.302285
     68          1           0       -0.420395   -4.015483    3.405075
     69          1           0        2.017475   -3.497245    3.405202
     70          1           0        3.763615   -2.197841    2.302447
     71          1           0        3.268631   -2.372241   -3.539677
     72          1           0        1.793307   -3.972383   -2.436910
 ---------------------------------------------------------------------

 SCF Done:  E(RB3LYP) =  -1843.84287488     A.U. after   14 cycles

 Alpha  occ. eigenvalues --  -10.19641 -10.19640 -10.19640 -10.19639 -10.19638
 Alpha  occ. eigenvalues --  -10.19638 -10.19588 -10.19586 -10.19585 -10.19580
 Alpha  occ. eigenvalues --  -10.19580 -10.19577 -10.19546 -10.19543 -10.19543
 Alpha  occ. eigenvalues --  -10.19540 -10.19539 -10.19538 -10.18441 -10.18441
 Alpha  occ. eigenvalues --  -10.18441 -10.18441 -10.18440 -10.18440 -10.17882
 Alpha  occ. eigenvalues --  -10.17882 -10.17882 -10.17882 -10.17881 -10.17881
 Alpha  occ. eigenvalues --  -10.17879 -10.17879 -10.17879 -10.17879 -10.17878
 Alpha  occ. eigenvalues --  -10.17878 -10.17714 -10.17713 -10.17713 -10.17713
 Alpha  occ. eigenvalues --  -10.17713 -10.17713 -10.17712 -10.17712 -10.17712
 Alpha  occ. eigenvalues --  -10.17712 -10.17712 -10.17712  -0.90260  -0.89510
 Alpha  occ. eigenvalues --   -0.89509  -0.87421  -0.87421  -0.85235  -0.84049
 Alpha  occ. eigenvalues --   -0.82720  -0.82720  -0.80798  -0.80798  -0.79136
 Alpha  occ. eigenvalues --   -0.78778  -0.77533  -0.76707  -0.76706  -0.75388
 Alpha  occ. eigenvalues --   -0.75388  -0.72675  -0.72674  -0.72510  -0.72510
 Alpha  occ. eigenvalues --   -0.71512  -0.70608  -0.65926  -0.64305  -0.64305
 Alpha  occ. eigenvalues --   -0.63488  -0.63473  -0.63473  -0.62295  -0.62295
 Alpha  occ. eigenvalues --   -0.60562  -0.59728  -0.59728  -0.57692  -0.57126
 Alpha  occ. eigenvalues --   -0.56457  -0.56456  -0.53947  -0.53799  -0.53798
 Alpha  occ. eigenvalues --   -0.53039  -0.50656  -0.50656  -0.50367  -0.50367
 Alpha  occ. eigenvalues --   -0.49710  -0.48836  -0.48142  -0.48049  -0.48048
 Alpha  occ. eigenvalues --   -0.46258  -0.46258  -0.46223  -0.46222  -0.45918
 Alpha  occ. eigenvalues --   -0.43962  -0.43610  -0.43610  -0.43428  -0.42935
 Alpha  occ. eigenvalues --   -0.42935  -0.42802  -0.42801  -0.41763  -0.41763
 Alpha  occ. eigenvalues --   -0.41755  -0.41270  -0.41093  -0.41092  -0.40528
 Alpha  occ. eigenvalues --   -0.40328  -0.39567  -0.39566  -0.39514  -0.39514
 Alpha  occ. eigenvalues --   -0.38850  -0.37531  -0.37531  -0.36743  -0.35571
 Alpha  occ. eigenvalues --   -0.34819  -0.34819  -0.34293  -0.34162  -0.34161
 Alpha  occ. eigenvalues --   -0.33081  -0.33080  -0.32636  -0.32635  -0.32462
 Alpha  occ. eigenvalues --   -0.30797  -0.30796  -0.30518  -0.29561  -0.28000
 Alpha  occ. eigenvalues --   -0.27678  -0.26096  -0.26095  -0.25028  -0.25028
 Alpha  occ. eigenvalues --   -0.21850  -0.21849  -0.21444  -0.21443  -0.20636
 Alpha  occ. eigenvalues --   -0.18965
 Alpha virt. eigenvalues --   -0.08275  -0.05852  -0.05348  -0.05348  -0.04920
 Alpha virt. eigenvalues --   -0.04918  -0.02991  -0.02988  -0.02960   0.01516
 Alpha virt. eigenvalues --    0.01516   0.03527   0.03738   0.03739   0.04186

 Mulliken charges:
               1
     1  C    0.069579
     2  C   -0.071980
     3  C   -0.212961
     4  C   -0.222026
     5  C    0.040814
     6  C    0.040931
     7  C   -0.213128
     8  C   -0.221989
     9  C   -0.072007
    10  C    0.069548
    11  C   -0.222021
    12  C   -0.213000
    13  C    0.041028
    14  C    0.040882
    15  C   -0.222020
    16  C   -0.213083
    17  C    0.069542
    18  C   -0.071997
    19  C   -0.212877
    20  C   -0.222040
    21  C    0.040881
    22  C    0.040938
    23  C   -0.213000
    24  C   -0.222046
    25  C   -0.071977
    26  C    0.069579
    27  C   -0.222015
    28  C   -0.213023
    29  C    0.040936
    30  C    0.040823
    31  C   -0.221975
    32  C   -0.213189
    33  C    0.069551
    34  C   -0.072013
    35  C   -0.212938
    36  C   -0.222034
    37  C    0.040874
    38  C    0.041025
    39  C   -0.213019
    40  C   -0.222036
    41  C   -0.071993
    42  C    0.069541
    43  C   -0.222027
    44  C   -0.212939
    45  C    0.040943
    46  C    0.040891
    47  C   -0.222032
    48  C   -0.213063
    49  H    0.206032
    50  H    0.189279
    51  H    0.206103
    52  H    0.189281
    53  H    0.189275
    54  H    0.206075
    55  H    0.189277
    56  H    0.206111
    57  H    0.205985
    58  H    0.189276
    59  H    0.206065
    60  H    0.189273
    61  H    0.189282
    62  H    0.206069
    63  H    0.189285
    64  H    0.206138
    65  H    0.206039
    66  H    0.189271
    67  H    0.206075
    68  H    0.189273
    69  H    0.189279
    70  H    0.206020
    71  H    0.189276
    72  H    0.206101
 Sum of Mulliken charges =  -0.00000

 Dipole moment (field-independent basis, Debye):
    X=              0.0000    Y=              0.0000    Z=              0.0000  Tot=              0.0000
 Quadrupole moment (field-independent basis, Debye-Ang):
   XX=           -278.3235   YY=           -278.3289   ZZ=           -233.6381
   XY=              0.0030   XZ=              0.0028   YZ=             -0.0010

 Normal termination of Gaussian 16 at Wed Jun  4 14:57:06 2025.
