 Gaussian 16, Revision B.01,
 Gaussian 16:  ES64L-G16RevB.01 20-Dec-2017

 ------------------------------------
 # B3LYP/6-311G* Pop=Hirshfeld NOSYMM
 ------------------------------------

 -----------------------------
 From ../../7circulene_opt.out
 -----------------------------
 Symbolic Z-matrix:
 Charge =  0 Multiplicity = 1

                          Input orientation:
 ---------------------------------------------------------------------
 Center     Atomic      Atomic             Coordinates (Angstroms)
 Number     Number       Type             X           Y           Z
 ---------------------------------------------------------------------
      1          6           0        1.298059    2.822004   -0.062430
      2          6           0        0.700928    1.515197   -0.021015
      3          6           0        3.356779    2.001224   -0.986593
      4          6           0        2.580528    3.049157   -0.627340
      5          6           0        2.936653    0.681889   -0.665925
      6          6           0        1.601401    0.382947   -0.233582
      7          6           0        3.777654   -1.471037   -0.033864
      8          6           0        3.983525   -0.280737   -0.641379
      9          6           0        2.465464   -1.847844    0.361321
     10          6           0        1.321162   -1.011555    0.125497
     11          6           0        1.132678   -3.736179    1.001966
     12          6           0        2.348867   -3.149488    0.915635
     13          6           0       -0.010338   -3.055273    0.505572
     14          6           0        0.013460   -1.657628    0.176219
     15          6           0       -2.204308   -3.373200   -0.412861
     16          6           0       -1.132204   -3.885142    0.232603
     17          6           0       -2.313656   -1.966042   -0.587573
     18          6           0       -1.270292   -1.056917   -0.205595
     19          6           0       -3.947039   -0.229398   -0.818592
     20          6           0       -3.589518   -1.518136   -1.022931
     21          6           0       -3.019601    0.679417   -0.245083
     22          6           0       -1.629192    0.353375   -0.084540
     23          6           0       -2.767917    2.837660    0.778287
     24          6           0       -3.570684    1.903391    0.220309
     25          6           0       -1.356528    2.682058    0.697288
     26          6           0       -0.737542    1.469015    0.245888
     27          6           0        0.651701    3.966536    0.475104
     28          6           0       -0.620047    3.876484    0.926464
     29          1           0        4.351763    2.145918   -1.398127
     30          1           0        2.924504    4.074393   -0.734393
     31          1           0        4.586416   -2.181320    0.114351
     32          1           0        4.964564    0.008459   -1.007547
     33          1           0        1.019356   -4.760741    1.345488
     34          1           0        3.256830   -3.681706    1.185995
     35          1           0       -3.038638   -3.999994   -0.714993
     36          1           0       -1.066687   -4.941802    0.476733
     37          1           0       -4.954365    0.120791   -1.027011
     38          1           0       -4.295957   -2.250034   -1.404610
     39          1           0       -3.167448    3.766694    1.175061
     40          1           0       -4.644892    2.048535    0.144654
     41          1           0        1.202176    4.902852    0.508878
     42          1           0       -1.137616    4.736175    1.342675
 ---------------------------------------------------------------------

 SCF Done:  E(RB3LYP) =  -1075.65800977     A.U. after   14 cycles

 Alpha  occ. eigenvalues --  -10.20384 -10.20368 -10.20350 -10.20307 -10.20271
 Alpha  occ. eigenvalues --  -10.20253 -10.20243 -10.18780 -10.18773 -10.18752
 Alpha  occ. eigenvalues --  -10.18732 -10.18699 -10.18679 -10.18662 -10.17504
 Alpha  occ. eigenvalues --  -10.17503 -10.17502 -10.17501 -10.17499 -10.17499
 Alpha  occ. eigenvalues --  -10.17497 -10.17432 -10.17431 -10.17429 -10.17427
 Alpha  occ. eigenvalues --  -10.17424 -10.17424 -10.17422  -0.90151  -0.87951
 Alpha  occ. eigenvalues --   -0.87950  -0.84249  -0.84153  -0.80325  -0.79780
 Alpha  occ. eigenvalues --   -0.79780  -0.76290  -0.76290  -0.74500  -0.74498
 Alpha  occ. eigenvalues --   -0.70650  -0.70607  -0.66050  -0.65940  -0.62386
 Alpha  occ. eigenvalues --   -0.62386  -0.61813  -0.59270  -0.59268  -0.55249
 Alpha  occ. eigenvalues --   -0.55248  -0.55246  -0.52160  -0.51014  -0.51011
 Alpha  occ. eigenvalues --   -0.49959  -0.49658  -0.46929  -0.46929  -0.45285
 Alpha  occ. eigenvalues --   -0.44875  -0.44264  -0.44195  -0.44144  -0.42759
 Alpha  occ. eigenvalues --   -0.42758  -0.42405  -0.41164  -0.41093  -0.39661
 Alpha  occ. eigenvalues --   -0.39661  -0.38725  -0.38722  -0.37034  -0.36956
 Alpha  occ. eigenvalues --   -0.36955  -0.34882  -0.34776  -0.34193  -0.34175
 Alpha  occ. eigenvalues --   -0.33203  -0.32937  -0.31288  -0.29773  -0.29771
 Alpha  occ. eigenvalues --   -0.26948  -0.26947  -0.23849  -0.23849  -0.20095
 Alpha  occ. eigenvalues --   -0.19626
 Alpha virt. eigenvalues --   -0.06502  -0.05551  -0.04457  -0.04445  -0.00876
 Alpha virt. eigenvalues --    0.02513   0.02624   0.02706   0.03976   0.04809
 Alpha virt. eigenvalues --    0.04810   0.06375   0.06426   0.06965   0.06965

 Mulliken charges:
               1
     1  C    0.060272
     2  C    0.034696
     3  C   -0.222127
     4  C   -0.225271
     5  C    0.058572
     6  C   -0.027756
     7  C   -0.223881
     8  C   -0.222110
     9  C    0.059032
    10  C    0.020407
    11  C   -0.223359
    12  C   -0.224405
    13  C    0.057984
    14  C    0.003199
    15  C   -0.222486
    16  C   -0.222983
    17  C    0.057593
    18  C   -0.010100
    19  C   -0.224977
    20  C   -0.222666
    21  C    0.059822
    22  C    0.028639
    23  C   -0.222058
    24  C   -0.224478
    25  C    0.059505
    26  C   -0.035330
    27  C   -0.225103
    28  C   -0.222018
    29  H    0.192271
    30  H    0.194150
    31  H    0.193078
    32  H    0.191851
    33  H    0.193305
    34  H    0.193866
    35  H    0.192143
    36  H    0.192476
    37  H    0.194115
    38  H    0.192864
    39  H    0.191808
    40  H    0.193490
    41  H    0.193974
    42  H    0.191997
 Sum of Mulliken charges =  -0.00000

 Dipole moment (field-independent basis, Debye):
    X=             -0.0004    Y=             -0.0059    Z=              0.0002  Tot=              0.0059
 Quadrupole moment (field-independent basis, Debye-Ang):
   XX=           -136.9265   YY=           -136.9268   ZZ=           -166.4225
   XY=              0.0006   XZ=             -0.0063   YZ=              0.0231

 Normal termination of Gaussian 16 at Mon Jul  7 21:16:49 2025.
