 Gaussian 16, Revision B.01,
 Gaussian 16:  ES64L-G16RevB.01 20-Dec-2017

 ------------------------------------
 # B3LYP/6-311G* Pop=Hirshfeld NOSYMM
 ------------------------------------

 ----------------------------
 From ../../7helicene_opt.out
 ----------------------------
 Symbolic Z-matrix:
 Charge =  0 Multiplicity = 1

                          Input orientation:
 ---------------------------------------------------------------------
 Center     Atomic      Atomic             Coordinates (Angstroms)
 Number     Number       Type             X           Y           Z
 ---------------------------------------------------------------------
      1          6           0        3.511054   -0.481982    1.675764
      2          6           0        2.816601   -0.288831    2.833943
      3          6           0        2.820331   -0.775883    0.463623
      4          6           0        1.395398   -0.181020    2.815494
      5          6           0        1.399071   -0.788779    0.432785
      6          6           0        0.689195   -0.238866    1.576174
      7          6           0        3.572143   -1.093770   -0.711707
      8          6           0        2.955477   -1.495842   -1.856573
      9          6           0        1.546349   -1.733518   -1.869737
     10          6           0        0.763629   -1.432780   -0.709932
     11          1           0        4.598109   -0.494648    1.672014
     12          1           0        3.332645   -0.180583    3.784642
     13          1           0        4.654804   -1.003004   -0.666797
     14          1           0        3.530879   -1.713064   -2.753153
     15          6           0        0.936757   -2.339867   -2.995131
     16          6           0       -0.577766   -1.892887   -0.699732
     17          6           0       -1.140736   -2.515157   -1.796900
     18          6           0       -0.389597   -2.714593   -2.971768
     19          1           0        1.549333   -2.533845   -3.872638
     20          1           0       -1.170035   -1.783534    0.198568
     21          1           0       -2.169253   -2.861890   -1.745457
     22          1           0       -0.842890   -3.189784   -3.837501
     23          6           0       -0.681175    0.032423    4.040582
     24          6           0        0.681165   -0.032892    4.040519
     25          6           0       -1.395505    0.180746    2.815638
     26          6           0       -0.689410    0.238598    1.576258
     27          6           0       -2.816687    0.288862    2.834233
     28          6           0       -3.511204    0.482421    1.676158
     29          6           0       -2.820522    0.776360    0.464000
     30          6           0       -1.399265    0.788809    0.433016
     31          1           0       -1.241607    0.037284    4.972053
     32          1           0        1.241683   -0.037783    4.971938
     33          1           0       -3.332662    0.180615    3.784969
     34          1           0       -4.598256    0.495394    1.672522
     35          6           0       -3.572348    1.094721   -0.711196
     36          6           0       -0.763700    1.432645   -0.709707
     37          6           0       -1.546438    1.733891   -1.869363
     38          6           0       -2.955663    1.496787   -1.856059
     39          1           0       -4.655036    1.004330   -0.666185
     40          1           0       -3.531086    1.714366   -2.752539
     41          6           0       -0.936710    2.340117   -2.994749
     42          6           0        0.577957    1.891980   -0.699659
     43          6           0        0.389839    2.714171   -2.971525
     44          6           0        1.141076    2.514128   -1.796820
     45          1           0       -1.549312    2.534515   -3.872145
     46          1           0        0.843244    3.189256   -3.837257
     47          1           0        2.169795    2.860283   -1.745501
     48          1           0        1.170328    1.782095    0.198517
 ---------------------------------------------------------------------

 SCF Done:  E(RB3LYP) =  -1154.30062116     A.U. after   14 cycles

 Alpha  occ. eigenvalues --  -10.19614 -10.19579 -10.19275 -10.19274 -10.18898
 Alpha  occ. eigenvalues --  -10.18897 -10.18654 -10.18654 -10.18553 -10.18551
 Alpha  occ. eigenvalues --  -10.18209 -10.18209 -10.17872 -10.17828 -10.17827
 Alpha  occ. eigenvalues --  -10.17807 -10.17757 -10.17757 -10.17544 -10.17544
 Alpha  occ. eigenvalues --  -10.17475 -10.17475 -10.17182 -10.17182 -10.17117
 Alpha  occ. eigenvalues --  -10.17117 -10.16982 -10.16982 -10.16808 -10.16807
 Alpha  occ. eigenvalues --   -0.89739  -0.87985  -0.86577  -0.84905  -0.82956
 Alpha  occ. eigenvalues --   -0.81010  -0.79588  -0.78897  -0.76980  -0.75629
 Alpha  occ. eigenvalues --   -0.74789  -0.73516  -0.72670  -0.71573  -0.70913
 Alpha  occ. eigenvalues --   -0.64763  -0.64493  -0.62489  -0.62195  -0.61524
 Alpha  occ. eigenvalues --   -0.60826  -0.59781  -0.57413  -0.56153  -0.54599
 Alpha  occ. eigenvalues --   -0.52997  -0.52403  -0.50950  -0.50905  -0.49633
 Alpha  occ. eigenvalues --   -0.48646  -0.48175  -0.46864  -0.45663  -0.45399
 Alpha  occ. eigenvalues --   -0.44621  -0.43522  -0.43358  -0.43090  -0.42972
 Alpha  occ. eigenvalues --   -0.42419  -0.41868  -0.41450  -0.40776  -0.40626
 Alpha  occ. eigenvalues --   -0.40058  -0.39492  -0.38677  -0.37803  -0.37278
 Alpha  occ. eigenvalues --   -0.36972  -0.36570  -0.35976  -0.35472  -0.34367
 Alpha  occ. eigenvalues --   -0.33799  -0.33797  -0.32748  -0.32342  -0.31172
 Alpha  occ. eigenvalues --   -0.29360  -0.29227  -0.28746  -0.25939  -0.24975
 Alpha  occ. eigenvalues --   -0.23237  -0.21662  -0.20813  -0.20553
 Alpha virt. eigenvalues --   -0.06538  -0.06294  -0.04110  -0.02935  -0.00791
 Alpha virt. eigenvalues --    0.00449   0.02481   0.03062   0.03681   0.04615
 Alpha virt. eigenvalues --    0.04970   0.05284   0.05766   0.06647   0.06682

 Mulliken charges:
               1
     1  C   -0.220178
     2  C   -0.216193
     3  C    0.087592
     4  C    0.084134
     5  C   -0.054665
     6  C   -0.062825
     7  C   -0.223653
     8  C   -0.207036
     9  C    0.073378
    10  C    0.001641
    11  H    0.191564
    12  H    0.192434
    13  H    0.190187
    14  H    0.189672
    15  C   -0.216402
    16  C   -0.204620
    17  C   -0.190106
    18  C   -0.191015
    19  H    0.188613
    20  H    0.235082
    21  H    0.189209
    22  H    0.188897
    23  C   -0.218241
    24  C   -0.218215
    25  C    0.084126
    26  C   -0.062663
    27  C   -0.216177
    28  C   -0.220196
    29  C    0.087558
    30  C   -0.054488
    31  H    0.192387
    32  H    0.192389
    33  H    0.192433
    34  H    0.191562
    35  C   -0.223657
    36  C    0.001645
    37  C    0.073339
    38  C   -0.207037
    39  H    0.190186
    40  H    0.189673
    41  C   -0.216415
    42  C   -0.204660
    43  C   -0.191009
    44  C   -0.190116
    45  H    0.188611
    46  H    0.188893
    47  H    0.189200
    48  H    0.235163
 Sum of Mulliken charges =  -0.00000

 Dipole moment (field-independent basis, Debye):
    X=              0.0003    Y=             -0.0001    Z=             -0.1243  Tot=              0.1243
 Quadrupole moment (field-independent basis, Debye-Ang):
   XX=           -151.1762   YY=           -179.7044   ZZ=           -152.8421
   XY=              2.5422   XZ=             -0.0018   YZ=             -0.0010

 Normal termination of Gaussian 16 at Sun Jul  6 01:21:26 2025.
