 Gaussian 16, Revision B.01,
 Gaussian 16:  ES64L-G16RevB.01 20-Dec-2017

 ------------------------------------
 # B3LYP/6-311G* Pop=Hirshfeld NOSYMM
 ------------------------------------

 -----------------------------
 From ../../8circulene_opt.out
 -----------------------------
 Symbolic Z-matrix:
 Charge =  0 Multiplicity = 1

                          Input orientation:
 ---------------------------------------------------------------------
 Center     Atomic      Atomic             Coordinates (Angstroms)
 Number     Number       Type             X           Y           Z
 ---------------------------------------------------------------------
      1          6           0       -1.373138   -2.710090    1.020196
      2          6           0       -0.680901   -3.542601    1.938306
      3          6           0        0.680901   -3.542601    1.938306
      4          6           0        1.373138   -2.710090    1.020196
      5          6           0        2.710090   -1.373138   -1.020196
      6          6           0        3.542601   -0.680901   -1.938306
      7          6           0        3.542601    0.680901   -1.938306
      8          6           0        2.710090    1.373138   -1.020196
      9          6           0        1.373138    2.710090    1.020196
     10          6           0        0.680901    3.542601    1.938306
     11          6           0       -0.680901    3.542601    1.938306
     12          6           0       -1.373138    2.710090    1.020196
     13          6           0       -2.710090    1.373138   -1.020196
     14          6           0       -3.542601    0.680901   -1.938306
     15          6           0       -3.542601   -0.680901   -1.938306
     16          6           0       -2.710090   -1.373138   -1.020196
     17          6           0       -3.184022   -2.640820   -0.559062
     18          6           0       -2.640820   -3.184022    0.559062
     19          6           0        2.640820   -3.184022    0.559062
     20          6           0        3.184022   -2.640820   -0.559062
     21          6           0        3.184022    2.640820   -0.559062
     22          6           0        2.640820    3.184022    0.559062
     23          6           0       -2.640820    3.184022    0.559062
     24          6           0       -3.184022    2.640820   -0.559062
     25          1           0       -1.243695   -4.276720    2.509102
     26          1           0        1.243695   -4.276720    2.509102
     27          1           0        4.276720   -1.243695   -2.509102
     28          1           0        4.276720    1.243695   -2.509102
     29          1           0        1.243695    4.276720    2.509102
     30          1           0       -1.243695    4.276720    2.509102
     31          1           0       -4.276720    1.243695   -2.509102
     32          1           0       -4.276720   -1.243695   -2.509102
     33          1           0       -4.065054   -3.068501   -1.029818
     34          1           0       -3.068501   -4.065054    1.029818
     35          1           0        3.068501   -4.065054    1.029818
     36          1           0        4.065054   -3.068501   -1.029818
     37          1           0        4.065054    3.068501   -1.029818
     38          1           0        3.068501    4.065054    1.029818
     39          1           0       -3.068501    4.065054    1.029818
     40          1           0       -4.065054    3.068501   -1.029818
     41          6           0       -0.722494    1.596579    0.400703
     42          6           0        0.722494    1.596579    0.400703
     43          6           0       -1.596579    0.722494   -0.400703
     44          6           0       -1.596579   -0.722494   -0.400703
     45          6           0       -0.722494   -1.596579    0.400703
     46          6           0        0.722494   -1.596579    0.400703
     47          6           0        1.596579    0.722494   -0.400703
     48          6           0        1.596579   -0.722494   -0.400703
 ---------------------------------------------------------------------

 SCF Done:  E(RB3LYP) =  -1229.25628842     A.U. after   15 cycles

 Alpha  occ. eigenvalues --  -10.19626 -10.19619 -10.19619 -10.19598 -10.19593
 Alpha  occ. eigenvalues --  -10.19570 -10.19570 -10.19559 -10.18603 -10.18602
 Alpha  occ. eigenvalues --  -10.18602 -10.18602 -10.18601 -10.18601 -10.18601
 Alpha  occ. eigenvalues --  -10.18600 -10.17639 -10.17639 -10.17639 -10.17639
 Alpha  occ. eigenvalues --  -10.17572 -10.17572 -10.17572 -10.17572 -10.17527
 Alpha  occ. eigenvalues --  -10.17527 -10.17527 -10.17526 -10.17457 -10.17457
 Alpha  occ. eigenvalues --  -10.17457 -10.17457  -0.90111  -0.88272  -0.88272
 Alpha  occ. eigenvalues --   -0.85168  -0.84851  -0.81243  -0.81243  -0.79865
 Alpha  occ. eigenvalues --   -0.77715  -0.76713  -0.76713  -0.76103  -0.72369
 Alpha  occ. eigenvalues --   -0.72369  -0.71334  -0.70999  -0.65422  -0.65406
 Alpha  occ. eigenvalues --   -0.61876  -0.61876  -0.61687  -0.61687  -0.61342
 Alpha  occ. eigenvalues --   -0.55879  -0.55610  -0.55610  -0.55553  -0.53489
 Alpha  occ. eigenvalues --   -0.51601  -0.51468  -0.50456  -0.48704  -0.48704
 Alpha  occ. eigenvalues --   -0.47603  -0.47603  -0.45518  -0.45518  -0.45172
 Alpha  occ. eigenvalues --   -0.44129  -0.43696  -0.42897  -0.42851  -0.42851
 Alpha  occ. eigenvalues --   -0.42437  -0.41844  -0.41570  -0.39801  -0.39801
 Alpha  occ. eigenvalues --   -0.39372  -0.39372  -0.39031  -0.37230  -0.37170
 Alpha  occ. eigenvalues --   -0.36951  -0.36951  -0.34836  -0.34327  -0.33824
 Alpha  occ. eigenvalues --   -0.33313  -0.32613  -0.32613  -0.31207  -0.31207
 Alpha  occ. eigenvalues --   -0.30319  -0.26866  -0.26727  -0.26727  -0.25826
 Alpha  occ. eigenvalues --   -0.21547  -0.21200  -0.21200  -0.18914
 Alpha virt. eigenvalues --   -0.08034  -0.05128  -0.03675  -0.03675  -0.00921
 Alpha virt. eigenvalues --   -0.00804  -0.00804   0.02428   0.02941   0.04063
 Alpha virt. eigenvalues --    0.04596   0.04596   0.06050   0.06050   0.06168

 Mulliken charges:
               1
     1  C    0.065605
     2  C   -0.223051
     3  C   -0.223051
     4  C    0.065605
     5  C    0.065605
     6  C   -0.223051
     7  C   -0.223051
     8  C    0.065605
     9  C    0.065605
    10  C   -0.223051
    11  C   -0.223051
    12  C    0.065605
    13  C    0.065605
    14  C   -0.223051
    15  C   -0.223051
    16  C    0.065605
    17  C   -0.218904
    18  C   -0.218904
    19  C   -0.218904
    20  C   -0.218904
    21  C   -0.218904
    22  C   -0.218904
    23  C   -0.218904
    24  C   -0.218904
    25  H    0.194909
    26  H    0.194909
    27  H    0.194909
    28  H    0.194909
    29  H    0.194909
    30  H    0.194909
    31  H    0.194909
    32  H    0.194909
    33  H    0.192579
    34  H    0.192579
    35  H    0.192579
    36  H    0.192579
    37  H    0.192579
    38  H    0.192579
    39  H    0.192579
    40  H    0.192579
    41  C   -0.011139
    42  C   -0.011139
    43  C   -0.011139
    44  C   -0.011139
    45  C   -0.011139
    46  C   -0.011139
    47  C   -0.011139
    48  C   -0.011139
 Sum of Mulliken charges =  -0.00000

 Dipole moment (field-independent basis, Debye):
    X=             -0.0000    Y=              0.0000    Z=             -0.0000  Tot=              0.0000
 Quadrupole moment (field-independent basis, Debye-Ang):
   XX=           -160.7578   YY=           -160.7578   ZZ=           -179.8121
   XY=             -0.0000   XZ=              0.0000   YZ=              0.0000

 Normal termination of Gaussian 16 at Mon Jul  7 22:02:35 2025.
