 Gaussian 16, Revision B.01,
 Gaussian 16:  ES64L-G16RevB.01 20-Dec-2017

 ------------------------------------
 # B3LYP/6-311G* Pop=Hirshfeld NOSYMM
 ------------------------------------

 ------------------------------
 From ../../cone_C70H20_opt.out
 ------------------------------
 Symbolic Z-matrix:
 Charge =  0 Multiplicity = 1

                          Input orientation:
 ---------------------------------------------------------------------
 Center     Atomic      Atomic             Coordinates (Angstroms)
 Number     Number       Type             X           Y           Z
 ---------------------------------------------------------------------
      1          6           0       -1.252397    6.603491   -1.086714
      2          6           0       -2.435824    5.930131   -0.895754
      3          6           0        0.000000    6.034398   -0.715237
      4          6           0       -2.476724    4.648342   -0.270536
      5          6           0        0.000000    4.805336   -0.012909
      6          6           0        1.252397    6.603491   -1.086714
      7          6           0       -3.655381    3.791891   -0.270671
      8          6           0       -1.253528    4.151247    0.262147
      9          6           0        1.253528    4.151247    0.262147
     10          6           0        2.435824    5.930131   -0.895754
     11          6           0       -4.886921    4.148990   -0.896238
     12          6           0       -3.560610    2.474947    0.262023
     13          6           0       -1.246797    2.925321    0.986398
     14          6           0        1.246797    2.925321    0.986398
     15          6           0        2.476724    4.648342   -0.270536
     16          6           0       -5.892937    3.231519   -1.087376
     17          6           0       -4.569989    1.484865   -0.013140
     18          6           0       -2.396831    2.089746    0.986394
     19          6           0        0.000000    2.427471    1.485354
     20          6           0        2.396831    2.089746    0.986394
     21          6           0        3.655381    3.791891   -0.270671
     22          6           0       -5.738767    1.864610   -0.715706
     23          6           0       -4.335354    0.090580    0.262102
     24          6           0       -2.308658    0.750136    1.485405
     25          6           0        0.000000    1.209485    2.150812
     26          6           0        2.308658    0.750136    1.485405
     27          6           0        3.560610    2.474947    0.262023
     28          6           0        4.886921    4.148990   -0.896238
     29          6           0       -6.667012    0.849385   -1.087218
     30          6           0       -5.186106   -0.919146   -0.270596
     31          6           0       -3.167440   -0.281831    0.986506
     32          6           0       -1.150287    0.373753    2.150865
     33          6           0        1.150287    0.373753    2.150865
     34          6           0        3.167440   -0.281831    0.986506
     35          6           0        4.569989    1.484865   -0.013140
     36          6           0        5.892937    3.231519   -1.087376
     37          6           0       -6.392418   -0.484177   -0.896029
     38          6           0       -4.735911   -2.304794   -0.270522
     39          6           0       -2.728184   -1.633807    0.986599
     40          6           0       -0.710913   -0.978493    2.150936
     41          6           0        0.710913   -0.978493    2.150936
     42          6           0        2.728184   -1.633807    0.986599
     43          6           0        4.335354    0.090580    0.262102
     44          6           0        5.738767    1.864610   -0.715706
     45          6           0       -5.456153   -3.365763   -0.895934
     46          6           0       -3.454166   -2.621609    0.262256
     47          6           0       -1.426863   -1.963920    1.485594
     48          6           0        1.426863   -1.963920    1.485594
     49          6           0        3.454166   -2.621609    0.262256
     50          6           0        5.186106   -0.919146   -0.270596
     51          6           0        6.667012    0.849385   -1.087218
     52          6           0       -4.894492   -4.606077   -1.086985
     53          6           0       -2.824466   -3.887554   -0.012874
     54          6           0       -0.710767   -3.099524    0.986600
     55          6           0        0.710767   -3.099524    0.986600
     56          6           0        2.824466   -3.887554   -0.012874
     57          6           0        4.735911   -2.304794   -0.270522
     58          6           0        6.392418   -0.484177   -0.896029
     59          6           0       -3.546810   -4.881804   -0.715392
     60          6           0       -1.425893   -4.095240    0.262283
     61          6           0        1.425893   -4.095240    0.262283
     62          6           0        3.546810   -4.881804   -0.715392
     63          6           0        5.456153   -3.365763   -0.895934
     64          6           0       -2.868085   -6.078279   -1.087045
     65          6           0       -0.728472   -5.216327   -0.270486
     66          6           0        0.728472   -5.216327   -0.270486
     67          6           0        2.868085   -6.078279   -1.087045
     68          6           0        4.894492   -4.606077   -1.086985
     69          6           0       -1.514915   -6.229156   -0.895990
     70          6           0        1.514915   -6.229156   -0.895990
     71          1           0       -1.257866    7.567302   -1.589862
     72          1           0       -3.352676    6.379681   -1.262197
     73          1           0        3.352676    6.379681   -1.262197
     74          1           0       -5.031049    5.159841   -1.262845
     75          1           0        5.031049    5.159841   -1.262845
     76          1           0        6.807775    3.534469   -1.590777
     77          1           0       -7.585248    1.142019   -1.590534
     78          1           0       -7.103284   -1.217262   -1.262427
     79          1           0        7.103284   -1.217262   -1.262427
     80          1           0       -6.462094   -3.190489   -1.262488
     81          1           0        6.462094   -3.190489   -1.262488
     82          1           0       -3.430141   -6.861128   -1.590392
     83          1           0        5.465350   -5.382561   -1.590285
     84          1           0       -1.037361   -7.131670   -1.262592
     85          1           0        1.037361   -7.131670   -1.262592
     86          1           0        1.257866    7.567302   -1.589862
     87          1           0       -6.807775    3.534469   -1.590777
     88          1           0       -5.465350   -5.382561   -1.590285
     89          1           0        3.430141   -6.861128   -1.590392
     90          1           0        7.585248    1.142019   -1.590534
 ---------------------------------------------------------------------

 SCF Done:  E(RB3LYP) =  -2680.34369363     A.U. after   14 cycles

 Alpha  occ. eigenvalues --  -10.20185 -10.20185 -10.20185 -10.20185 -10.20185
 Alpha  occ. eigenvalues --  -10.20151 -10.20151 -10.20151 -10.20151 -10.20151
 Alpha  occ. eigenvalues --  -10.19775 -10.19775 -10.19775 -10.19774 -10.19774
 Alpha  occ. eigenvalues --  -10.19769 -10.19769 -10.19767 -10.19767 -10.19766
 Alpha  occ. eigenvalues --  -10.19717 -10.19715 -10.19715 -10.19712 -10.19712
 Alpha  occ. eigenvalues --  -10.19689 -10.19688 -10.19685 -10.19685 -10.19683
 Alpha  occ. eigenvalues --  -10.19671 -10.19671 -10.19671 -10.19671 -10.19670
 Alpha  occ. eigenvalues --  -10.19454 -10.19454 -10.19454 -10.19454 -10.19454
 Alpha  occ. eigenvalues --  -10.19428 -10.19427 -10.19427 -10.19427 -10.19426
 Alpha  occ. eigenvalues --  -10.18782 -10.18781 -10.18781 -10.18781 -10.18781
 Alpha  occ. eigenvalues --  -10.18781 -10.18781 -10.18780 -10.18780 -10.18780
 Alpha  occ. eigenvalues --  -10.18701 -10.18700 -10.18700 -10.18700 -10.18700
 Alpha  occ. eigenvalues --  -10.18699 -10.18698 -10.18698 -10.18698 -10.18698
 Alpha  occ. eigenvalues --  -10.18041 -10.18013 -10.18013 -10.17962 -10.17962
 Alpha  occ. eigenvalues --   -0.93977  -0.91698  -0.91698  -0.90432  -0.89665
 Alpha  occ. eigenvalues --   -0.89664  -0.87136  -0.87136  -0.87047  -0.87047
 Alpha  occ. eigenvalues --   -0.84699  -0.84236  -0.84236  -0.83471  -0.83471
 Alpha  occ. eigenvalues --   -0.81871  -0.80088  -0.79876  -0.79876  -0.79675
 Alpha  occ. eigenvalues --   -0.79675  -0.77425  -0.77425  -0.76430  -0.75949
 Alpha  occ. eigenvalues --   -0.75949  -0.75536  -0.75536  -0.73996  -0.73996
 Alpha  occ. eigenvalues --   -0.73293  -0.71427  -0.71427  -0.71217  -0.71217
 Alpha  occ. eigenvalues --   -0.67464  -0.66026  -0.66026  -0.65983  -0.65983
 Alpha  occ. eigenvalues --   -0.65197  -0.64711  -0.64711  -0.63603  -0.63603
 Alpha  occ. eigenvalues --   -0.62751  -0.61770  -0.61770  -0.60120  -0.60120
 Alpha  occ. eigenvalues --   -0.59281  -0.59281  -0.57572  -0.57232  -0.55739
 Alpha  occ. eigenvalues --   -0.55739  -0.55375  -0.54724  -0.54724  -0.53688
 Alpha  occ. eigenvalues --   -0.53687  -0.52975  -0.52975  -0.51574  -0.51574
 Alpha  occ. eigenvalues --   -0.50787  -0.50787  -0.50228  -0.49710  -0.49710
 Alpha  occ. eigenvalues --   -0.48477  -0.48357  -0.48357  -0.46734  -0.46734
 Alpha  occ. eigenvalues --   -0.46354  -0.45887  -0.45546  -0.45546  -0.45498
 Alpha  occ. eigenvalues --   -0.45235  -0.45235  -0.44417  -0.44345  -0.44345
 Alpha  occ. eigenvalues --   -0.43974  -0.43974  -0.43395  -0.43395  -0.43254
 Alpha  occ. eigenvalues --   -0.43254  -0.43090  -0.43090  -0.41964  -0.41659
 Alpha  occ. eigenvalues --   -0.41433  -0.41433  -0.41328  -0.41328  -0.41028
 Alpha  occ. eigenvalues --   -0.40985  -0.40985  -0.40106  -0.40106  -0.39524
 Alpha  occ. eigenvalues --   -0.39524  -0.39104  -0.38441  -0.38441  -0.38435
 Alpha  occ. eigenvalues --   -0.38435  -0.37651  -0.37651  -0.37101  -0.37101
 Alpha  occ. eigenvalues --   -0.36607  -0.36607  -0.35165  -0.34964  -0.34964
 Alpha  occ. eigenvalues --   -0.34889  -0.34761  -0.34733  -0.34733  -0.33903
 Alpha  occ. eigenvalues --   -0.33903  -0.32377  -0.32377  -0.31796  -0.31525
 Alpha  occ. eigenvalues --   -0.31525  -0.30526  -0.29824  -0.29824  -0.29732
 Alpha  occ. eigenvalues --   -0.29732  -0.27288  -0.27288  -0.26021  -0.25789
 Alpha  occ. eigenvalues --   -0.25789  -0.25715  -0.25715  -0.23913  -0.23913
 Alpha  occ. eigenvalues --   -0.23577  -0.20526  -0.20526  -0.19982  -0.19982
 Alpha virt. eigenvalues --   -0.09461  -0.09461  -0.06407  -0.05853  -0.05132
 Alpha virt. eigenvalues --   -0.05132  -0.04616  -0.03800  -0.03800  -0.03503
 Alpha virt. eigenvalues --   -0.03503  -0.00843  -0.00843  -0.00245  -0.00244

 Mulliken charges:
               1
     1  C   -0.233594
     2  C   -0.202027
     3  C    0.074954
     4  C    0.020175
     5  C   -0.099935
     6  C   -0.233594
     7  C    0.020206
     8  C    0.044189
     9  C    0.044188
    10  C   -0.202027
    11  C   -0.201985
    12  C    0.044064
    13  C   -0.035478
    14  C   -0.035478
    15  C    0.020175
    16  C   -0.233588
    17  C   -0.099914
    18  C   -0.035333
    19  C    0.100491
    20  C   -0.035333
    21  C    0.020206
    22  C    0.074947
    23  C    0.044138
    24  C    0.100398
    25  C   -0.045409
    26  C    0.100398
    27  C    0.044064
    28  C   -0.201985
    29  C   -0.233612
    30  C    0.020132
    31  C   -0.035358
    32  C   -0.045335
    33  C   -0.045335
    34  C   -0.035358
    35  C   -0.099914
    36  C   -0.233588
    37  C   -0.201995
    38  C    0.020249
    39  C   -0.035433
    40  C   -0.045428
    41  C   -0.045428
    42  C   -0.035433
    43  C    0.044139
    44  C    0.074947
    45  C   -0.201980
    46  C    0.044076
    47  C    0.100615
    48  C    0.100615
    49  C    0.044076
    50  C    0.020132
    51  C   -0.233612
    52  C   -0.233605
    53  C   -0.099973
    54  C   -0.035512
    55  C   -0.035512
    56  C   -0.099973
    57  C    0.020249
    58  C   -0.201995
    59  C    0.074937
    60  C    0.044243
    61  C    0.044243
    62  C    0.074937
    63  C   -0.201980
    64  C   -0.233603
    65  C    0.020142
    66  C    0.020142
    67  C   -0.233603
    68  C   -0.233605
    69  C   -0.201987
    70  C   -0.201987
    71  H    0.192193
    72  H    0.199451
    73  H    0.199451
    74  H    0.199437
    75  H    0.199437
    76  H    0.192191
    77  H    0.192193
    78  H    0.199446
    79  H    0.199446
    80  H    0.199439
    81  H    0.199439
    82  H    0.192192
    83  H    0.192194
    84  H    0.199443
    85  H    0.199443
    86  H    0.192193
    87  H    0.192191
    88  H    0.192194
    89  H    0.192192
    90  H    0.192193
 Sum of Mulliken charges =  -0.00000

 Dipole moment (field-independent basis, Debye):
    X=             -0.0000    Y=              0.0002    Z=             -5.6724  Tot=              5.6724
 Quadrupole moment (field-independent basis, Debye-Ang):
   XX=           -340.4302   YY=           -340.4282   ZZ=           -397.5685
   XY=             -0.0000   XZ=             -0.0000   YZ=              0.0019

 Normal termination of Gaussian 16 at Fri Sep 14 05:33:21 2007.
