 Gaussian 16, Revision B.01,
 Gaussian 16:  ES64L-G16RevB.01 20-Dec-2017

 ------------------------------------
 # B3LYP/6-311G* Pop=Hirshfeld NOSYMM
 ------------------------------------

 ------------------------------
 From ../../corannulene_opt.out
 ------------------------------
 Symbolic Z-matrix:
 Charge =  0 Multiplicity = 1

                          Input orientation:
 ---------------------------------------------------------------------
 Center     Atomic      Atomic             Coordinates (Angstroms)
 Number     Number       Type             X           Y           Z
 ---------------------------------------------------------------------
      1          6           0        1.051058    3.093339   -0.256699
      2          6           0        2.241637    2.376650   -0.256744
      3          1           0        3.142434    2.872718   -0.611488
      4          6           0        2.292327    0.970862    0.086749
      5          6           0        3.266699   -0.043735   -0.256749
      6          6           0        2.953030   -1.397520   -0.256645
      7          1           0        3.703207   -2.100944   -0.611322
      8          6           0        1.631715   -1.880154    0.086905
      9          6           0        0.967887   -3.120377   -0.256598
     10          6           0       -0.416569   -3.240356   -0.256650
     11          1           0       -0.853754   -4.171161   -0.611383
     12          6           0       -1.283886   -2.132833    0.086836
     13          6           0       -2.668538   -1.884740   -0.256706
     14          6           0       -3.210495   -0.605124   -0.256729
     15          1           0       -4.230841   -0.476983   -0.611468
     16          6           0       -2.425211    0.561987    0.086797
     17          6           0       -2.617129    1.955536   -0.256709
     18          6           0       -1.567622    2.866392   -0.256655
     19          1           0       -1.761057    3.876414   -0.611346
     20          6           0       -0.214970    2.480182    0.086835
     21          6           0       -0.104067    1.200509    0.604293
     22          6           0        1.109592    0.469952    0.604288
     23          6           0        0.789824   -0.910053    0.604351
     24          6           0       -0.621463   -1.032380    0.604338
     25          6           0       -1.173915    0.272021    0.604298
     26          1           0        4.249780    0.258044   -0.611499
     27          1           0        1.558712   -3.962090   -0.611298
     28          1           0       -3.286469   -2.706749   -0.611431
     29          1           0       -3.589850    2.289228   -0.611434
     30          1           0        1.067820    4.121578   -0.611395
 ---------------------------------------------------------------------

 SCF Done:  E(RB3LYP) =  -768.297491505     A.U. after   14 cycles

 Alpha  occ. eigenvalues --  -10.19392 -10.19392 -10.19390 -10.19390 -10.19389
 Alpha  occ. eigenvalues --  -10.19076 -10.19076 -10.19075 -10.19074 -10.19073
 Alpha  occ. eigenvalues --  -10.19022 -10.19021 -10.19021 -10.19020 -10.19020
 Alpha  occ. eigenvalues --  -10.17157 -10.17128 -10.17128 -10.17076 -10.17076
 Alpha  occ. eigenvalues --   -0.92325  -0.86374  -0.86374  -0.81256  -0.80575
 Alpha  occ. eigenvalues --   -0.80575  -0.73965  -0.73965  -0.72285  -0.72285
 Alpha  occ. eigenvalues --   -0.64472  -0.64472  -0.63753  -0.59930  -0.59930
 Alpha  occ. eigenvalues --   -0.58295  -0.52163  -0.52163  -0.51249  -0.50518
 Alpha  occ. eigenvalues --   -0.50518  -0.45518  -0.45518  -0.43993  -0.43533
 Alpha  occ. eigenvalues --   -0.43533  -0.42610  -0.42610  -0.41773  -0.40599
 Alpha  occ. eigenvalues --   -0.40599  -0.38897  -0.37721  -0.37720  -0.34412
 Alpha  occ. eigenvalues --   -0.34411  -0.33618  -0.33618  -0.31179  -0.30652
 Alpha  occ. eigenvalues --   -0.30651  -0.23506  -0.23506  -0.22814  -0.22814
 Alpha virt. eigenvalues --   -0.06870  -0.06870  -0.01339   0.00042   0.01197
 Alpha virt. eigenvalues --    0.01197   0.04977   0.05625   0.05625   0.07085
 Alpha virt. eigenvalues --    0.07085   0.08672   0.08673   0.09289   0.09289

 Mulliken charges:
               1
     1  C   -0.226913
     2  C   -0.226925
     3  H    0.195167
     4  C    0.092107
     5  C   -0.226932
     6  C   -0.226918
     7  H    0.195166
     8  C    0.092061
     9  C   -0.226924
    10  C   -0.226911
    11  H    0.195167
    12  C    0.092065
    13  C   -0.226929
    14  C   -0.226929
    15  H    0.195169
    16  C    0.092062
    17  C   -0.226926
    18  C   -0.226923
    19  H    0.195165
    20  C    0.092069
    21  C   -0.028565
    22  C   -0.028591
    23  C   -0.028560
    24  C   -0.028547
    25  C   -0.028532
    26  H    0.195166
    27  H    0.195165
    28  H    0.195166
    29  H    0.195166
    30  H    0.195164
 Sum of Mulliken charges =  -0.00000

 Dipole moment (field-independent basis, Debye):
    X=             -0.0000    Y=             -0.0001    Z=             -2.1680  Tot=              2.1680
 Quadrupole moment (field-independent basis, Debye-Ang):
   XX=           -100.3558   YY=           -100.3555   ZZ=           -119.8222
   XY=             -0.0001   XZ=              0.0001   YZ=             -0.0001

 Normal termination of Gaussian 16 at Tue Jun 10 21:09:48 2025.
