 Gaussian 16, Revision B.01,
 Gaussian 16:  ES64L-G16RevB.01 20-Dec-2017

 ------------------------------------
 # B3LYP/6-311G* Pop=Hirshfeld NOSYMM
 ------------------------------------

 ------------------------------
 From ../../septulene_reopt.out
 ------------------------------
 Symbolic Z-matrix:
 Charge =  0 Multiplicity = 1

                          Input orientation:
 ---------------------------------------------------------------------
 Center     Atomic      Atomic             Coordinates (Angstroms)
 Number     Number       Type             X           Y           Z
 ---------------------------------------------------------------------
      1          6           0        5.760804   -3.319979   -1.471614
      2          6           0        4.999707   -4.430014   -1.357778
      3          6           0        6.729125    1.285864   -0.248366
      4          6           0        6.388115    2.465202    0.316584
      5          6           0        1.070932   -6.761035    0.337510
      6          6           0       -0.178167   -6.785230    0.852427
      7          6           0        3.118187    5.873522    1.468501
      8          6           0        1.888892    6.415421    1.328263
      9          6           0       -4.606042   -4.851871    1.320231
     10          6           0       -5.517202   -3.915314    0.977058
     11          6           0       -2.664121    6.301014   -0.406503
     12          6           0       -3.738581    5.654489   -0.909929
     13          6           0       -6.763431    0.400562   -0.924257
     14          6           0       -6.486602    1.671667   -1.288785
     15          6           0        6.127041   -0.962511   -0.980810
     16          6           0        2.963200   -5.522032   -0.581443
     17          6           0        4.679137    4.059060    1.018054
     18          6           0       -2.319601   -5.686803    1.238881
     19          6           0       -0.407911    6.260355    0.525410
     20          6           0       -6.059007   -1.732330    0.030240
     21          6           0       -4.981841    3.586506   -1.253764
     22          6           0        3.467918   -0.582694   -0.276805
     23          6           0        1.691161   -3.089131   -0.167123
     24          6           0        2.631679    2.331842    0.286117
     25          6           0       -1.344105   -3.245203    0.344365
     26          6           0       -0.201923    3.517093    0.150300
     27          6           0       -3.389264   -0.970710    0.008270
     28          6           0       -2.859822    2.039894   -0.349052
     29          6           0        5.249997   -2.040625   -1.063006
     30          6           0        5.731998    0.282497   -0.501841
     31          6           0        3.657230   -4.346299   -0.853174
     32          6           0        1.667239   -5.520773   -0.075466
     33          6           0        5.007747    2.791651    0.547714
     34          6           0        3.364387    4.513376    1.076066
     35          6           0       -0.978441   -5.591669    0.880146
     36          6           0        0.799053    5.631220    0.817327
     37          6           0       -3.205282   -4.622572    1.094841
     38          6           0       -1.504619    5.568378    0.021458
     39          6           0       -5.097851   -2.642241    0.460183
     40          6           0       -3.789668    4.218089   -0.912584
     41          6           0       -5.729122   -0.454835   -0.412165
     42          6           0       -5.172688    2.217821   -1.086462
     43          6           0        3.882935   -1.875489   -0.653368
     44          6           0        4.347744    0.512447   -0.197396
     45          6           0        3.041251   -3.079656   -0.569628
     46          6           0        0.967577   -4.274158    0.061694
     47          6           0        3.958083    1.866191    0.226086
     48          6           0        2.296325    3.649600    0.655377
     49          6           0       -0.451102   -4.328346    0.446791
     50          6           0       -2.720606   -3.356111    0.621432
     51          6           0        0.946740    4.226950    0.551974
     52          6           0       -1.440743    4.138326   -0.094088
     53          6           0       -3.707115   -2.294686    0.366915
     54          6           0       -4.363204   -0.015913   -0.341210
     55          6           0       -2.673829    3.429883   -0.470311
     56          6           0       -4.088697    1.403957   -0.611728
     57          1           0        6.786995   -3.373777   -1.825896
     58          1           0        5.390308   -5.410731   -1.616923
     59          1           0        7.765115    1.048842   -0.476502
     60          1           0        7.139621    3.211927    0.559752
     61          1           0        1.663414   -7.668395    0.252567
     62          1           0       -0.627720   -7.712868    1.197186
     63          1           0        3.956427    6.463284    1.830478
     64          1           0        1.700670    7.457624    1.573077
     65          1           0       -4.911563   -5.818122    1.713245
     66          1           0       -6.583122   -4.099854    1.083444
     67          1           0       -2.638980    7.385670   -0.339815
     68          1           0       -4.609845    6.199851   -1.263386
     69          1           0       -7.767918   -0.005344   -1.012440
     70          1           0       -7.260138    2.326616   -1.681394
     71          1           0        7.172368   -1.117570   -1.239396
     72          1           0        3.466263   -6.474491   -0.734282
     73          1           0        5.481285    4.743160    1.286703
     74          1           0       -2.707145   -6.649165    1.566403
     75          1           0       -0.484533    7.336733    0.663824
     76          1           0       -7.105131   -2.031019    0.038339
     77          1           0       -5.820659    4.194984   -1.584997
     78          1           0        2.438021   -0.435096    0.031959
     79          1           0        1.194434   -2.141308    0.013784
     80          1           0        1.839584    1.663070   -0.035046
     81          1           0       -0.968807   -2.305620   -0.048351
     82          1           0       -0.122575    2.447198   -0.013563
     83          1           0       -2.345670   -0.672914   -0.001296
     84          1           0       -2.043703    1.444918    0.048233
 ---------------------------------------------------------------------

 SCF Done:  E(RB3LYP) =  -2151.39703180     A.U. after   17 cycles

 Alpha  occ. eigenvalues --  -10.19758 -10.19757 -10.19737 -10.19734 -10.19727
 Alpha  occ. eigenvalues --  -10.19726 -10.19712 -10.19710 -10.19706 -10.19703
 Alpha  occ. eigenvalues --  -10.19701 -10.19681 -10.19679 -10.19670 -10.18972
 Alpha  occ. eigenvalues --  -10.18971 -10.18968 -10.18968 -10.18964 -10.18962
 Alpha  occ. eigenvalues --  -10.18958 -10.18957 -10.18949 -10.18948 -10.18947
 Alpha  occ. eigenvalues --  -10.18946 -10.18941 -10.18941 -10.18562 -10.18562
 Alpha  occ. eigenvalues --  -10.18556 -10.18555 -10.18547 -10.18546 -10.18542
 Alpha  occ. eigenvalues --  -10.18092 -10.18088 -10.18088 -10.18079 -10.18078
 Alpha  occ. eigenvalues --  -10.18068 -10.18067 -10.18020 -10.18015 -10.18014
 Alpha  occ. eigenvalues --  -10.18004 -10.18003 -10.17995 -10.17994 -10.17934
 Alpha  occ. eigenvalues --  -10.17933 -10.17923 -10.17922 -10.17911 -10.17910
 Alpha  occ. eigenvalues --  -10.17907  -0.90169  -0.89741  -0.89741  -0.88514
 Alpha  occ. eigenvalues --   -0.88505  -0.86612  -0.86612  -0.84207  -0.84207
 Alpha  occ. eigenvalues --   -0.81564  -0.81561  -0.81137  -0.80775  -0.80775
 Alpha  occ. eigenvalues --   -0.78797  -0.78773  -0.77875  -0.77875  -0.76753
 Alpha  occ. eigenvalues --   -0.76752  -0.74789  -0.74675  -0.73625  -0.73624
 Alpha  occ. eigenvalues --   -0.71616  -0.71616  -0.70867  -0.70853  -0.65964
 Alpha  occ. eigenvalues --   -0.65949  -0.65716  -0.65716  -0.65237  -0.63253
 Alpha  occ. eigenvalues --   -0.63252  -0.61469  -0.61468  -0.60712  -0.60677
 Alpha  occ. eigenvalues --   -0.60402  -0.59626  -0.59625  -0.58108  -0.58107
 Alpha  occ. eigenvalues --   -0.55754  -0.55730  -0.54733  -0.52786  -0.52786
 Alpha  occ. eigenvalues --   -0.52541  -0.52540  -0.52252  -0.52251  -0.50941
 Alpha  occ. eigenvalues --   -0.49970  -0.49950  -0.47989  -0.47975  -0.47974
 Alpha  occ. eigenvalues --   -0.47732  -0.47732  -0.45671  -0.45635  -0.45634
 Alpha  occ. eigenvalues --   -0.45611  -0.45563  -0.45563  -0.44440  -0.43541
 Alpha  occ. eigenvalues --   -0.43529  -0.43433  -0.43266  -0.43265  -0.42882
 Alpha  occ. eigenvalues --   -0.42882  -0.42715  -0.42512  -0.42496  -0.42189
 Alpha  occ. eigenvalues --   -0.41758  -0.41757  -0.40850  -0.40849  -0.40738
 Alpha  occ. eigenvalues --   -0.40737  -0.40234  -0.40229  -0.39401  -0.39389
 Alpha  occ. eigenvalues --   -0.38286  -0.38277  -0.37859  -0.37853  -0.37302
 Alpha  occ. eigenvalues --   -0.37285  -0.37006  -0.35497  -0.34976  -0.34973
 Alpha  occ. eigenvalues --   -0.34877  -0.34876  -0.34365  -0.34365  -0.33161
 Alpha  occ. eigenvalues --   -0.33156  -0.33155  -0.33101  -0.32516  -0.31990
 Alpha  occ. eigenvalues --   -0.31990  -0.31748  -0.31739  -0.29985  -0.29885
 Alpha  occ. eigenvalues --   -0.27730  -0.27730  -0.27383  -0.27382  -0.24634
 Alpha  occ. eigenvalues --   -0.23498  -0.23495  -0.23119  -0.20528  -0.20527
 Alpha  occ. eigenvalues --   -0.20269  -0.20219
 Alpha virt. eigenvalues --   -0.07746  -0.07671  -0.06723  -0.06722  -0.04910
 Alpha virt. eigenvalues --   -0.04908  -0.04481  -0.01416  -0.00807  -0.00799
 Alpha virt. eigenvalues --    0.00535   0.00535   0.01328   0.02081   0.02337

 Mulliken charges:
               1
     1  C   -0.213208
     2  C   -0.211510
     3  C   -0.212312
     4  C   -0.212499
     5  C   -0.210783
     6  C   -0.213991
     7  C   -0.213422
     8  C   -0.211313
     9  C   -0.214447
    10  C   -0.210293
    11  C   -0.210624
    12  C   -0.214147
    13  C   -0.210267
    14  C   -0.214479
    15  C   -0.273074
    16  C   -0.275330
    17  C   -0.272723
    18  C   -0.270288
    19  C   -0.275499
    20  C   -0.276008
    21  C   -0.270080
    22  C   -0.200869
    23  C   -0.199763
    24  C   -0.201083
    25  C   -0.202784
    26  C   -0.199757
    27  C   -0.199930
    28  C   -0.202937
    29  C    0.074015
    30  C    0.074813
    31  C    0.073982
    32  C    0.074958
    33  C    0.074626
    34  C    0.073954
    35  C    0.073117
    36  C    0.073908
    37  C    0.072917
    38  C    0.074753
    39  C    0.073511
    40  C    0.072982
    41  C    0.073587
    42  C    0.072773
    43  C   -0.031673
    44  C   -0.017449
    45  C   -0.025263
    46  C   -0.013280
    47  C   -0.018153
    48  C   -0.031905
    49  C   -0.024274
    50  C   -0.030504
    51  C   -0.024204
    52  C   -0.012913
    53  C   -0.015543
    54  C   -0.014806
    55  C   -0.025008
    56  C   -0.030021
    57  H    0.191791
    58  H    0.191978
    59  H    0.191483
    60  H    0.191461
    61  H    0.191708
    62  H    0.191369
    63  H    0.191758
    64  H    0.191989
    65  H    0.191513
    66  H    0.191965
    67  H    0.191738
    68  H    0.191373
    69  H    0.191956
    70  H    0.191488
    71  H    0.195944
    72  H    0.196070
    73  H    0.195932
    74  H    0.195845
    75  H    0.196085
    76  H    0.196146
    77  H    0.195846
    78  H    0.218201
    79  H    0.215311
    80  H    0.218433
    81  H    0.219635
    82  H    0.214930
    83  H    0.212884
    84  H    0.219687
 Sum of Mulliken charges =  -0.00000

 Dipole moment (field-independent basis, Debye):
    X=             -0.0009    Y=              0.0000    Z=             -0.0002  Tot=              0.0009
 Quadrupole moment (field-independent basis, Debye-Ang):
   XX=           -270.8939   YY=           -270.8966   ZZ=           -333.6813
   XY=              0.0008   XZ=              0.0139   YZ=             -0.0424

 Normal termination of Gaussian 16 at Tue Jun 17 18:20:25 2025.
